<VTKFile type="UnstructuredGrid" byte_order="BigEndian">
<UnstructuredGrid><Piece NumberOfPoints="231" NumberOfCells="200">
<Points>
 <DataArray type="Float32" NumberOfComponents="3" format="ascii">
 9.879999756813049316e-01 0.000000000000000000e+00 0.000000000000000000e+00
 1.028949975967407227e+00 0.000000000000000000e+00 0.000000000000000000e+00
 1.069900035858154297e+00 0.000000000000000000e+00 0.000000000000000000e+00
 1.110849976539611816e+00 0.000000000000000000e+00 0.000000000000000000e+00
 1.151800036430358887e+00 0.000000000000000000e+00 0.000000000000000000e+00
 1.192749977111816406e+00 0.000000000000000000e+00 0.000000000000000000e+00
 1.233700037002563477e+00 0.000000000000000000e+00 0.000000000000000000e+00
 1.274649977684020996e+00 0.000000000000000000e+00 0.000000000000000000e+00
 1.315600037574768066e+00 0.000000000000000000e+00 0.000000000000000000e+00
 1.356549978256225586e+00 0.000000000000000000e+00 0.000000000000000000e+00
 1.397500038146972656e+00 0.000000000000000000e+00 0.000000000000000000e+00
 1.438449978828430176e+00 0.000000000000000000e+00 0.000000000000000000e+00
 1.479400038719177246e+00 0.000000000000000000e+00 0.000000000000000000e+00
 1.520349979400634766e+00 0.000000000000000000e+00 0.000000000000000000e+00
 1.561300039291381836e+00 0.000000000000000000e+00 0.000000000000000000e+00
 1.602249979972839355e+00 0.000000000000000000e+00 0.000000000000000000e+00
 1.643200039863586426e+00 0.000000000000000000e+00 0.000000000000000000e+00
 1.684149980545043945e+00 0.000000000000000000e+00 0.000000000000000000e+00
 1.725100040435791016e+00 0.000000000000000000e+00 0.000000000000000000e+00
 1.766049981117248535e+00 0.000000000000000000e+00 0.000000000000000000e+00
 1.807000041007995605e+00 0.000000000000000000e+00 0.000000000000000000e+00
 9.879999756813049316e-01 2.989999949932098389e-02 0.000000000000000000e+00
 1.028949975967407227e+00 2.862999960780143738e-02 0.000000000000000000e+00
 1.069900035858154297e+00 2.735999971628189087e-02 0.000000000000000000e+00
 1.110849976539611816e+00 2.608999982476234436e-02 0.000000000000000000e+00
 1.151800036430358887e+00 2.481999993324279785e-02 0.000000000000000000e+00
 1.192749977111816406e+00 2.355000004172325134e-02 0.000000000000000000e+00
 1.233700037002563477e+00 2.228000015020370483e-02 0.000000000000000000e+00
 1.274649977684020996e+00 2.101000025868415833e-02 0.000000000000000000e+00
 1.315600037574768066e+00 1.974000036716461182e-02 0.000000000000000000e+00
 1.356549978256225586e+00 1.847000047564506531e-02 0.000000000000000000e+00
 1.397500038146972656e+00 1.720000058412551880e-02 0.000000000000000000e+00
 1.438449978828430176e+00 1.593000069260597229e-02 0.000000000000000000e+00
 1.479400038719177246e+00 1.465999986976385117e-02 0.000000000000000000e+00
 1.520349979400634766e+00 1.338999997824430466e-02 0.000000000000000000e+00
 1.561300039291381836e+00 1.212000008672475815e-02 0.000000000000000000e+00
 1.602249979972839355e+00 1.085000019520521164e-02 0.000000000000000000e+00
 1.643200039863586426e+00 9.580000303685665131e-03 0.000000000000000000e+00
 1.684149980545043945e+00 8.310000412166118622e-03 0.000000000000000000e+00
 1.725100040435791016e+00 7.040000054985284805e-03 0.000000000000000000e+00
 1.766049981117248535e+00 5.770000163465738297e-03 0.000000000000000000e+00
 1.807000041007995605e+00 4.499999806284904480e-03 0.000000000000000000e+00
 9.879999756813049316e-01 5.979999899864196777e-02 0.000000000000000000e+00
 1.028949975967407227e+00 5.725999921560287476e-02 0.000000000000000000e+00
 1.069900035858154297e+00 5.471999943256378174e-02 0.000000000000000000e+00
 1.110849976539611816e+00 5.217999964952468872e-02 0.000000000000000000e+00
 1.151800036430358887e+00 4.963999986648559570e-02 0.000000000000000000e+00
 1.192749977111816406e+00 4.710000008344650269e-02 0.000000000000000000e+00
 1.233700037002563477e+00 4.456000030040740967e-02 0.000000000000000000e+00
 1.274649977684020996e+00 4.202000051736831665e-02 0.000000000000000000e+00
 1.315600037574768066e+00 3.948000073432922363e-02 0.000000000000000000e+00
 1.356549978256225586e+00 3.694000095129013062e-02 0.000000000000000000e+00
 1.397500038146972656e+00 3.440000116825103760e-02 0.000000000000000000e+00
 1.438449978828430176e+00 3.186000138521194458e-02 0.000000000000000000e+00
 1.479400038719177246e+00 2.931999973952770233e-02 0.000000000000000000e+00
 1.520349979400634766e+00 2.677999995648860931e-02 0.000000000000000000e+00
 1.561300039291381836e+00 2.424000017344951630e-02 0.000000000000000000e+00
 1.602249979972839355e+00 2.170000039041042328e-02 0.000000000000000000e+00
 1.643200039863586426e+00 1.916000060737133026e-02 0.000000000000000000e+00
 1.684149980545043945e+00 1.662000082433223724e-02 0.000000000000000000e+00
 1.725100040435791016e+00 1.408000010997056961e-02 0.000000000000000000e+00
 1.766049981117248535e+00 1.154000032693147659e-02 0.000000000000000000e+00
 1.807000041007995605e+00 8.999999612569808960e-03 0.000000000000000000e+00
 9.879999756813049316e-01 8.969999849796295166e-02 0.000000000000000000e+00
 1.028949975967407227e+00 8.589000254869461060e-02 0.000000000000000000e+00
 1.069900035858154297e+00 8.207999914884567261e-02 0.000000000000000000e+00
 1.110849976539611816e+00 7.827000319957733154e-02 0.000000000000000000e+00
 1.151800036430358887e+00 7.445999979972839355e-02 0.000000000000000000e+00
 1.192749977111816406e+00 7.064999639987945557e-02 0.000000000000000000e+00
 1.233700037002563477e+00 6.684000045061111450e-02 0.000000000000000000e+00
 1.274649977684020996e+00 6.302999705076217651e-02 0.000000000000000000e+00
 1.315600037574768066e+00 5.922000110149383545e-02 0.000000000000000000e+00
 1.356549978256225586e+00 5.541000142693519592e-02 0.000000000000000000e+00
 1.397500038146972656e+00 5.160000175237655640e-02 0.000000000000000000e+00
 1.438449978828430176e+00 4.778999835252761841e-02 0.000000000000000000e+00
 1.479400038719177246e+00 4.397999867796897888e-02 0.000000000000000000e+00
 1.520349979400634766e+00 4.016999900341033936e-02 0.000000000000000000e+00
 1.561300039291381836e+00 3.635999932885169983e-02 0.000000000000000000e+00
 1.602249979972839355e+00 3.254999965429306030e-02 0.000000000000000000e+00
 1.643200039863586426e+00 2.873999997973442078e-02 0.000000000000000000e+00
 1.684149980545043945e+00 2.493000030517578125e-02 0.000000000000000000e+00
 1.725100040435791016e+00 2.112000063061714172e-02 0.000000000000000000e+00
 1.766049981117248535e+00 1.730999909341335297e-02 0.000000000000000000e+00
 1.807000041007995605e+00 1.350000035017728806e-02 0.000000000000000000e+00
 9.879999756813049316e-01 1.195999979972839355e-01 0.000000000000000000e+00
 1.028949975967407227e+00 1.145199984312057495e-01 0.000000000000000000e+00
 1.069900035858154297e+00 1.094399988651275635e-01 0.000000000000000000e+00
 1.110849976539611816e+00 1.043599992990493774e-01 0.000000000000000000e+00
 1.151800036430358887e+00 9.927999973297119141e-02 0.000000000000000000e+00
 1.192749977111816406e+00 9.420000016689300537e-02 0.000000000000000000e+00
 1.233700037002563477e+00 8.912000060081481934e-02 0.000000000000000000e+00
 1.274649977684020996e+00 8.404000103473663330e-02 0.000000000000000000e+00
 1.315600037574768066e+00 7.896000146865844727e-02 0.000000000000000000e+00
 1.356549978256225586e+00 7.388000190258026123e-02 0.000000000000000000e+00
 1.397500038146972656e+00 6.880000233650207520e-02 0.000000000000000000e+00
 1.438449978828430176e+00 6.372000277042388916e-02 0.000000000000000000e+00
 1.479400038719177246e+00 5.863999947905540466e-02 0.000000000000000000e+00
 1.520349979400634766e+00 5.355999991297721863e-02 0.000000000000000000e+00
 1.561300039291381836e+00 4.848000034689903259e-02 0.000000000000000000e+00
 1.602249979972839355e+00 4.340000078082084656e-02 0.000000000000000000e+00
 1.643200039863586426e+00 3.832000121474266052e-02 0.000000000000000000e+00
 1.684149980545043945e+00 3.324000164866447449e-02 0.000000000000000000e+00
 1.725100040435791016e+00 2.816000021994113922e-02 0.000000000000000000e+00
 1.766049981117248535e+00 2.308000065386295319e-02 0.000000000000000000e+00
 1.807000041007995605e+00 1.799999922513961792e-02 0.000000000000000000e+00
 9.879999756813049316e-01 1.494999974966049194e-01 0.000000000000000000e+00
 1.028949975967407227e+00 1.431500017642974854e-01 0.000000000000000000e+00
 1.069900035858154297e+00 1.368000060319900513e-01 0.000000000000000000e+00
 1.110849976539611816e+00 1.304499953985214233e-01 0.000000000000000000e+00
 1.151800036430358887e+00 1.240999996662139893e-01 0.000000000000000000e+00
 1.192749977111816406e+00 1.177499964833259583e-01 0.000000000000000000e+00
 1.233700037002563477e+00 1.114000007510185242e-01 0.000000000000000000e+00
 1.274649977684020996e+00 1.050499975681304932e-01 0.000000000000000000e+00
 1.315600037574768066e+00 9.870000183582305908e-02 0.000000000000000000e+00
 1.356549978256225586e+00 9.234999865293502808e-02 0.000000000000000000e+00
 1.397500038146972656e+00 8.600000292062759399e-02 0.000000000000000000e+00
 1.438449978828430176e+00 7.964999973773956299e-02 0.000000000000000000e+00
 1.479400038719177246e+00 7.329999655485153198e-02 0.000000000000000000e+00
 1.520349979400634766e+00 6.695000082254409790e-02 0.000000000000000000e+00
 1.561300039291381836e+00 6.060000136494636536e-02 0.000000000000000000e+00
 1.602249979972839355e+00 5.424999818205833435e-02 0.000000000000000000e+00
 1.643200039863586426e+00 4.789999872446060181e-02 0.000000000000000000e+00
 1.684149980545043945e+00 4.154999926686286926e-02 0.000000000000000000e+00
 1.725100040435791016e+00 3.519999980926513672e-02 0.000000000000000000e+00
 1.766049981117248535e+00 2.885000035166740417e-02 0.000000000000000000e+00
 1.807000041007995605e+00 2.250000089406967163e-02 0.000000000000000000e+00
 9.879999756813049316e-01 1.793999969959259033e-01 0.000000000000000000e+00
 1.028949975967407227e+00 1.717800050973892212e-01 0.000000000000000000e+00
[...]
<CellData>
 <DataArray Name="pos.x" type="Float32" NumberOfComponents="1" format="ascii">
 1.008326909277294847e+00
 1.049270191105552863e+00
 1.090212834424694632e+00
 1.131154743665293783e+00
 1.172095803183788920e+00
 1.213035871699752688e+00
 1.253974774774782919e+00
 1.294912294478530068e+00
 1.335848154933257259e+00
 1.376782001682086864e+00
 1.417713371566556857e+00
 1.458641647597245461e+00
 1.499565989304815217e+00
 1.540485221481776135e+00
 1.581397649107526115e+00
 1.622300734214380702e+00
 1.663190497484622110e+00
 1.704060325732898118e+00
 1.744898360655741332e+00
 1.785681012658226541e+00
 1.008326909277297956e+00
 1.049270191105555527e+00
 1.090212834424696409e+00
 1.131154743665291340e+00
 1.172095803183791807e+00
 1.213035871699751356e+00
 1.253974774774777812e+00
 1.294912294478529402e+00
 1.335848154933259258e+00
 1.376782001682078205e+00
 1.417713371566562630e+00
 1.458641647597250346e+00
 1.499565989304816105e+00
 1.540485221481781020e+00
 1.581397649107522785e+00
 1.622300734214408457e+00
 1.663190497484624109e+00
 1.704060325732899228e+00
 1.744898360655743552e+00
 1.785681012658227429e+00
 1.008326909277297512e+00
 1.049270191105554639e+00
 1.090212834424691524e+00
 1.131154743665294449e+00
 1.172095803183791585e+00
 1.213035871699765789e+00
 1.253974774774766265e+00
 1.294912294478527182e+00
 1.335848154933260368e+00
 1.376782001682087087e+00
 1.417713371566557967e+00
 1.458641647597244795e+00
 1.499565989304824321e+00
 1.540485221481765032e+00
 1.581397649107548542e+00
 1.622300734214379814e+00
 1.663190497484621222e+00
 1.704060325732870584e+00
 1.744898360655763536e+00
 1.785681012658212774e+00
 1.008326909277296846e+00
 1.049270191105553751e+00
 1.090212834424693744e+00
 1.131154743665297779e+00
 1.172095803183785589e+00
 1.213035871699761792e+00
 1.253974774774768708e+00
 1.294912294478530068e+00
 1.335848154933263920e+00
 1.376782001682098189e+00
 1.417713371566550862e+00
 1.458641647597249680e+00
 1.499565989304809666e+00
 1.540485221481772582e+00
 1.581397649107532111e+00
 1.622300734214386697e+00
 1.663190497484638541e+00
 1.704060325732914549e+00
 1.744898360655734226e+00
 1.785681012658210109e+00
 1.008326909277291961e+00
 1.049270191105557748e+00
 1.090212834424701960e+00
 1.131154743665290896e+00
 1.172095803183792251e+00
 1.213035871699761348e+00
 1.253974774774766709e+00
 1.294912294478534287e+00
 1.335848154933259702e+00
 1.376782001682101297e+00
 1.417713371566555303e+00
 1.458641647597251012e+00
 1.499565989304816993e+00
 1.540485221481773248e+00
 1.581397649107521453e+00
 1.622300734214394913e+00
 1.663190497484640984e+00
 1.704060325732899228e+00
 1.744898360655727121e+00
 1.785681012658239641e+00
 1.008326909277299066e+00
 1.049270191105558636e+00
 1.090212834424696631e+00
 1.131154743665292228e+00
 1.172095803183789364e+00
 1.213035871699764678e+00
 1.253974774774778478e+00
 1.294912294478524739e+00
 1.335848154933263254e+00
 1.376782001682080647e+00
 1.417713371566565739e+00
 1.458641647597249680e+00
 1.499565989304812552e+00
 1.540485221481771694e+00
 1.581397649107534553e+00
 1.622300734214378259e+00
 1.663190497484626773e+00
 1.704060325732903891e+00
 1.744898360655772196e+00
 1.785681012658215661e+00
 1.008326909277296402e+00
 1.049270191105560857e+00
 1.090212834424689303e+00
 1.131154743665293116e+00
 1.172095803183791141e+00
 1.213035871699766677e+00
 1.253974774774769152e+00
 1.294912294478530068e+00
 1.335848154933270804e+00
 1.376782001682083534e+00
 1.417713371566551750e+00
 1.458641647597245461e+00
 1.499565989304826763e+00
 1.540485221481764588e+00
 1.581397649107525671e+00
 1.622300734214388918e+00
 1.663190497484626773e+00
 1.704060325732904557e+00
 1.744898360655744884e+00
 1.785681012658232314e+00
 1.008326909277292849e+00
 1.049270191105555972e+00
 1.090212834424693300e+00
 1.131154743665290896e+00
 1.172095803183788476e+00
 1.213035871699761126e+00
 1.253974774774769152e+00
 1.294912294478525849e+00
 1.335848154933267695e+00
 1.376782001682086864e+00
 1.417713371566558855e+00
 1.458641647597238133e+00
 1.499565989304820768e+00
 1.540485221481787015e+00
 1.581397649107530556e+00
 1.622300734214392470e+00
 1.663190497484625219e+00
 1.704060325732881465e+00
 1.744898360655729785e+00
 1.785681012658217659e+00
 1.008326909277294847e+00
 1.049270191105550865e+00
 1.090212834424701516e+00
 1.131154743665291784e+00
 1.172095803183780927e+00
 1.213035871699760015e+00
 1.253974774774772927e+00
 1.294912294478520742e+00
 1.335848154933260368e+00
 1.376782001682086864e+00
 1.417713371566558633e+00
 1.458641647597245461e+00
 1.499565989304809221e+00
 1.540485221481782130e+00
 1.581397649107546322e+00
 1.622300734214405127e+00
 1.663190497484619002e+00
 1.704060325732916104e+00
 1.744898360655729785e+00
 1.785681012658221212e+00
 1.008326909277298622e+00
 1.049270191105554195e+00
 1.090212834424686639e+00
 1.131154743665305551e+00
 1.172095803183793361e+00
 1.213035871699762236e+00
 1.253974774774771372e+00
 1.294912294478534065e+00
 1.335848154933257481e+00
 1.376782001682083534e+00
 1.417713371566564406e+00
 1.458641647597233026e+00
 1.499565989304829428e+00
 1.540485221481758371e+00
 1.581397649107508130e+00
 1.622300734214375817e+00
 1.663190497484656749e+00
 1.704060325732901449e+00
 1.744898360655735337e+00
 1.785681012658221212e+00
 </DataArray>
 <DataArray Name="pos.y" type="Float32" NumberOfComponents="1" format="ascii">
 1.463479640070624449e-02
 1.399990057748401982e-02
 1.336501465544121491e-02
 1.273014011654554148e-02
 1.209527875404864568e-02
 1.146043275874604299e-02
 1.082560483560490033e-02
 1.019079836400814745e-02
 9.556017621913964755e-03
 8.921268105784533470e-03
 8.286556997685873630e-03
 7.651893865097511745e-03
 7.017291740938761020e-03
 6.382768848817467304e-03
 5.748351472935728408e-03
 5.114078968836645658e-03
 4.480013042668147365e-03
 3.846256243213915307e-03
 3.212992453812117677e-03
 2.580587471600127945e-03
 4.390438920211867102e-02
 4.199970173245212018e-02
 4.009504396632376094e-02
 3.819042034963653770e-02
 3.628583626214604285e-02
 3.438129827623803009e-02
 3.247681450681467324e-02
 3.057239509202456726e-02
 2.866805286574180406e-02
 2.676380431735340612e-02
 2.485967099305770589e-02
 2.295568159529256386e-02
 2.105187522281639148e-02
 1.914830654645243574e-02
 1.724505441880705772e-02
 1.534223690651013473e-02
 1.344003912800441347e-02
 1.153876872964165919e-02
 9.638977361436406807e-03
 7.741762414800369523e-03
 7.317398200353121551e-02
 6.999950288742005922e-02
 6.682507327720611789e-02
 6.365070058272763454e-02
 6.047639377024319890e-02
 5.730216379373053587e-02
 5.412802417802391880e-02
 5.095399182004076155e-02
 4.778008810956988622e-02
 4.460634052892254592e-02
 4.143278498842955376e-02
 3.825946932548749541e-02
 3.508645870469412342e-02
 3.191384424408715004e-02
 2.874175736467874526e-02
 2.557039484418322309e-02
 2.240006521334083484e-02
 1.923128121606922092e-02
 1.606496226906080002e-02
 1.290293735800060980e-02
 1.024435748049437878e-01
 9.799930404238811621e-02
 9.355510258808864832e-02
 8.911098081581907138e-02
 8.466695127834027168e-02
 8.022302931122272940e-02
 7.577923384923399008e-02
 7.133558854805734095e-02
 6.689212335339808635e-02
 6.244887674049199450e-02
 5.800589898380090897e-02
 5.356325705568273920e-02
 4.912104218657128984e-02
 4.467938194172232924e-02
 4.023846031054980482e-02
 3.579855278185672951e-02
 3.136009129867724926e-02
 2.692379370249737419e-02
 2.249094717668489660e-02
 1.806411230120077288e-02
 1.317131676063555690e-01
 1.259991051973568255e-01
 1.202851318989715396e-01
 1.145712610489096478e-01
 1.088575087864380314e-01
 1.031438948287150686e-01
 9.743044352044318013e-02
 9.171718527607372606e-02
 8.600415859722564116e-02
 8.029141295206126960e-02
 7.457901297917278460e-02
 6.886704478587767075e-02
 6.315562566844902526e-02
 5.744491963935738355e-02
 5.173516325642128766e-02
 4.602671071953028104e-02
 4.032011738401358736e-02
 3.461630618892506950e-02
 2.891693208430904174e-02
 2.322528724440150669e-02
 1.609827604077687380e-01
 1.539989063523249102e-01
 1.470151612098535288e-01
 1.400315412820009320e-01
 1.330480662945349168e-01
 1.260647603462072830e-01
 1.190816531916536886e-01
 1.120987820040897920e-01
 1.051161938410540425e-01
 9.813394916362948306e-02
 9.115212697454501412e-02
 8.417083251607299088e-02
 7.719020915032655250e-02
 7.021045733699211866e-02
 6.323186620229283295e-02
 5.625486865720343010e-02
 4.928014346934962014e-02
 4.230881867535302848e-02
 3.534291699193396752e-02
 2.838646218760132456e-02
 1.902523532091810188e-01
 1.819987075072936611e-01
 1.737451905207348934e-01
 1.654918215150919525e-01
 1.572386238026322047e-01
 1.489856258636996500e-01
 1.407328628628621292e-01
 1.324803787321066628e-01
 1.242282290848829435e-01
 1.159764853751979741e-01
 1.077252409699161612e-01
 9.947462024626776977e-02
 9.122479263220506507e-02
 8.297599503462634030e-02
 7.472856914816429497e-02
 6.648302659487734245e-02
 5.824016955468593049e-02
 5.000133116178027970e-02
 4.176890189955784205e-02
 3.354763713080152060e-02
 2.195219460105932441e-01
 2.099985086622607189e-01
 2.004752198316184786e-01
 1.909521017481832506e-01
 1.814291813107287987e-01
 1.719064913811910178e-01
 1.623840725340720825e-01
 1.528619754601224512e-01
 1.433402643287103595e-01
 1.338190215867674782e-01
 1.242983549652883213e-01
 1.147784079764625903e-01
 1.052593761140819678e-01
 9.574153273226261585e-02
 8.622527209403567372e-02
 7.671118453255028335e-02
 6.720019564002233103e-02
 5.769384364820826644e-02
 4.819488680718176515e-02
 3.870881207400185542e-02
 2.487915388120059967e-01
 2.379983098172283040e-01
 2.272052491425017584e-01
 2.164123819812743543e-01
 2.056197388188260033e-01
 1.948273568986831072e-01
 1.840352822052822024e-01
 1.732435721881376567e-01
 1.624522995725380670e-01
 1.516615577983365104e-01
 1.408714689606596349e-01
 1.300821957066575774e-01
 1.192939595959585791e-01
 1.085070704298973787e-01
 9.772197503990751044e-02
 8.693934247022448714e-02
 7.616022172535795443e-02
 6.538635613463694707e-02
 5.462087171480584091e-02
 4.386998701720203758e-02
 2.780611316134182776e-01
 2.659981109721962778e-01
 2.539352784533813190e-01
 2.418726622143668459e-01
 2.298102963269239574e-01
 2.177482224161761126e-01
 2.056864918764920169e-01
 1.936251689161558598e-01
 1.815643348163650250e-01
 1.695040940099048765e-01
 1.574445829560330301e-01
 1.453859834368514681e-01
 1.333285430778388125e-01
 1.212726081275305873e-01
 1.092186779857773904e-01
 9.716750040789635945e-02
 8.512024781069604806e-02
 7.307886862106419135e-02
 6.104685662243013872e-02
 4.903116196040224056e-02
 </DataArray>
 <DataArray Name="pos.z" type="Float32" NumberOfComponents="1" format="ascii">
 0.000000000000000000e+00
 0.000000000000000000e+00
 0.000000000000000000e+00
 0.000000000000000000e+00
 0.000000000000000000e+00
 0.000000000000000000e+00
 0.000000000000000000e+00
 0.000000000000000000e+00
 0.000000000000000000e+00
 0.000000000000000000e+00
 0.000000000000000000e+00
 0.000000000000000000e+00
 0.000000000000000000e+00
 0.000000000000000000e+00
 0.000000000000000000e+00
 0.000000000000000000e+00
 0.000000000000000000e+00
 0.000000000000000000e+00
 0.000000000000000000e+00
 0.000000000000000000e+00
 0.000000000000000000e+00
 0.000000000000000000e+00
 0.000000000000000000e+00
 0.000000000000000000e+00
 0.000000000000000000e+00
 0.000000000000000000e+00
 0.000000000000000000e+00
 0.000000000000000000e+00
 0.000000000000000000e+00
 0.000000000000000000e+00
 0.000000000000000000e+00
 0.000000000000000000e+00
 0.000000000000000000e+00
 0.000000000000000000e+00
 0.000000000000000000e+00
 0.000000000000000000e+00
 0.000000000000000000e+00
 0.000000000000000000e+00
 0.000000000000000000e+00
 0.000000000000000000e+00
 0.000000000000000000e+00
 0.000000000000000000e+00
 0.000000000000000000e+00
 0.000000000000000000e+00
 0.000000000000000000e+00
 0.000000000000000000e+00
 0.000000000000000000e+00
 0.000000000000000000e+00
 0.000000000000000000e+00
 0.000000000000000000e+00
 0.000000000000000000e+00
 0.000000000000000000e+00
 0.000000000000000000e+00
 0.000000000000000000e+00
 0.000000000000000000e+00
 0.000000000000000000e+00
 0.000000000000000000e+00
 0.000000000000000000e+00
 0.000000000000000000e+00
 0.000000000000000000e+00
 0.000000000000000000e+00
 0.000000000000000000e+00
 0.000000000000000000e+00
 0.000000000000000000e+00
 0.000000000000000000e+00
 0.000000000000000000e+00
 0.000000000000000000e+00
 0.000000000000000000e+00
 0.000000000000000000e+00
 0.000000000000000000e+00
 0.000000000000000000e+00
 0.000000000000000000e+00
 0.000000000000000000e+00
 0.000000000000000000e+00
 0.000000000000000000e+00
 0.000000000000000000e+00
 0.000000000000000000e+00
 0.000000000000000000e+00
 0.000000000000000000e+00
 0.000000000000000000e+00
 0.000000000000000000e+00
 0.000000000000000000e+00
 0.000000000000000000e+00
 0.000000000000000000e+00
 0.000000000000000000e+00
 0.000000000000000000e+00
 0.000000000000000000e+00
 0.000000000000000000e+00
 0.000000000000000000e+00
 0.000000000000000000e+00
 0.000000000000000000e+00
 0.000000000000000000e+00
 0.000000000000000000e+00
 0.000000000000000000e+00
 0.000000000000000000e+00
 0.000000000000000000e+00
 0.000000000000000000e+00
 0.000000000000000000e+00
 0.000000000000000000e+00
 0.000000000000000000e+00
 0.000000000000000000e+00
 0.000000000000000000e+00
 0.000000000000000000e+00
 0.000000000000000000e+00
 0.000000000000000000e+00
 0.000000000000000000e+00
 0.000000000000000000e+00
 0.000000000000000000e+00
 0.000000000000000000e+00
 0.000000000000000000e+00
 0.000000000000000000e+00
 0.000000000000000000e+00
 0.000000000000000000e+00
 0.000000000000000000e+00
 0.000000000000000000e+00
 0.000000000000000000e+00
 0.000000000000000000e+00
 0.000000000000000000e+00
 0.000000000000000000e+00
 0.000000000000000000e+00
 0.000000000000000000e+00
 0.000000000000000000e+00
 0.000000000000000000e+00
 0.000000000000000000e+00
 0.000000000000000000e+00
 0.000000000000000000e+00
 0.000000000000000000e+00
 0.000000000000000000e+00
 0.000000000000000000e+00
 0.000000000000000000e+00
 0.000000000000000000e+00
 0.000000000000000000e+00
 0.000000000000000000e+00
 0.000000000000000000e+00
 0.000000000000000000e+00
 0.000000000000000000e+00
 0.000000000000000000e+00
 0.000000000000000000e+00
 0.000000000000000000e+00
 0.000000000000000000e+00
 0.000000000000000000e+00
 0.000000000000000000e+00
 0.000000000000000000e+00
 0.000000000000000000e+00
 0.000000000000000000e+00
 0.000000000000000000e+00
 0.000000000000000000e+00
 0.000000000000000000e+00
 0.000000000000000000e+00
 0.000000000000000000e+00
 0.000000000000000000e+00
 0.000000000000000000e+00
 0.000000000000000000e+00
 0.000000000000000000e+00
 0.000000000000000000e+00
 0.000000000000000000e+00
 0.000000000000000000e+00
 0.000000000000000000e+00
 0.000000000000000000e+00
 0.000000000000000000e+00
 0.000000000000000000e+00
 0.000000000000000000e+00
 0.000000000000000000e+00
 0.000000000000000000e+00
 0.000000000000000000e+00
 0.000000000000000000e+00
 0.000000000000000000e+00
 0.000000000000000000e+00
 0.000000000000000000e+00
 0.000000000000000000e+00
 0.000000000000000000e+00
 0.000000000000000000e+00
 0.000000000000000000e+00
 0.000000000000000000e+00
 0.000000000000000000e+00
 0.000000000000000000e+00
 0.000000000000000000e+00
 0.000000000000000000e+00
 0.000000000000000000e+00
 0.000000000000000000e+00
 0.000000000000000000e+00
 0.000000000000000000e+00
 0.000000000000000000e+00
 0.000000000000000000e+00
 0.000000000000000000e+00
 0.000000000000000000e+00
 0.000000000000000000e+00
 0.000000000000000000e+00
 0.000000000000000000e+00
 0.000000000000000000e+00
 0.000000000000000000e+00
 0.000000000000000000e+00
 0.000000000000000000e+00
 0.000000000000000000e+00
 0.000000000000000000e+00
 0.000000000000000000e+00
 0.000000000000000000e+00
 0.000000000000000000e+00
 0.000000000000000000e+00
 0.000000000000000000e+00
 </DataArray>
 <DataArray Name="volume" type="Float32" NumberOfComponents="1" format="ascii">
 1.198401750000001320e-03
 1.146395250000001309e-03
 1.094388750000001298e-03
 1.042382249999990879e-03
 9.903757500000012759e-04
 9.383692500000116732e-04
 8.863627499999908455e-04
 8.343562499999943038e-04
 7.823497500000047011e-04
 7.303432500000012206e-04
 6.783367500000012096e-04
 6.263302500000011985e-04
 5.743237500000011875e-04
 5.223172500000011764e-04
 4.703107500000011654e-04
 4.183042500000011543e-04
 3.662977500000011433e-04
 3.142912499999976628e-04
 2.622847499999993864e-04
 2.102782500000011101e-04
 1.198401750000001320e-03
 1.146395250000001092e-03
 1.094388749999998045e-03
 1.042382249999991746e-03
 9.903757500000019264e-04
 9.383692500000118900e-04
 8.863627499999910623e-04
 8.343562499999914849e-04
 7.823497500000066527e-04
 7.303432500000053406e-04
 6.783367499999986075e-04
 6.263302500000024996e-04
 5.743237500000016212e-04
 5.223172499999990080e-04
 4.703107500000059359e-04
 4.183042499999950828e-04
 3.662977500000007096e-04
 3.142912499999959280e-04
 2.622847499999993864e-04
 2.102782500000006764e-04
 1.198401750000001754e-03
 1.146395250000004779e-03
 1.094388750000005635e-03
 1.042382249999991746e-03
 9.903757500000090822e-04
 9.383692499999982291e-04
 8.863627500000016875e-04
 8.343562500000025438e-04
 7.823497500000025327e-04
 7.303432500000016543e-04
 6.783367499999999085e-04
 6.263302500000051017e-04
 5.743237499999977180e-04
 5.223172500000011764e-04
 4.703107500000002980e-04
 4.183042499999985522e-04
 3.662977499999968065e-04
 3.142912500000037343e-04
 2.622847499999993864e-04
 2.102782500000011101e-04
 1.198401749999997851e-03
 1.146395250000001309e-03
 1.094388750000004767e-03
 1.042382249999985674e-03
 9.903757500000056127e-04
 9.383692499999960607e-04
 8.863627499999934475e-04
 8.343562499999986407e-04
 7.823497499999977622e-04
 7.303432499999977512e-04
 6.783367500000012096e-04
 6.263302499999994638e-04
 5.743237500000029222e-04
 5.223172499999994417e-04
 4.703107499999985633e-04
 4.183042499999985522e-04
 3.662977499999968065e-04
 3.142912499999993975e-04
 2.622847499999985191e-04
 2.102782500000011101e-04
 1.198401750000002187e-03
 1.146395249999997840e-03
 1.094388749999998696e-03
 1.042382249999995215e-03
 9.903757499999995412e-04
 9.383692499999986628e-04
 8.863627499999986517e-04
 8.343562499999995080e-04
 7.823497500000029664e-04
 7.303432499999960165e-04
 6.783367500000003422e-04
 6.263302500000011985e-04
 5.743237500000020548e-04
 5.223172499999977070e-04
 4.703107499999959612e-04
 4.183042500000046238e-04
 3.662977499999976738e-04
 3.142912500000028669e-04
 2.622847500000028559e-04
 2.102782499999976407e-04
 1.198401749999998718e-03
 1.146395250000008248e-03
 1.094388749999999563e-03
 1.042382249999991746e-03
 9.903757500000064801e-04
 9.383692500000003975e-04
 8.863627499999943149e-04
 8.343562500000029775e-04
 7.823497499999994970e-04
 7.303432500000012206e-04
 6.783367499999994749e-04
 6.263302499999994638e-04
 5.743237500000029222e-04
 5.223172500000011764e-04
 4.703107499999942265e-04
 4.183042500000046238e-04
 3.662977499999959391e-04
 3.142912499999959280e-04
 2.622847499999993864e-04
 2.102782500000011101e-04
 1.198401749999996116e-03
 1.146395249999994370e-03
 1.094388750000001298e-03
 1.042382249999992613e-03
 9.903757500000064801e-04
 9.383692499999977954e-04
 8.863627499999995191e-04
 8.343562499999995080e-04
 7.823497499999942928e-04
 7.303432500000046901e-04
 6.783367500000012096e-04
 6.263302500000011985e-04
 5.743237499999959833e-04
 5.223172500000029111e-04
 4.703107499999924918e-04
 4.183042500000011543e-04
 3.662977500000028780e-04
 3.142912500000046017e-04
 2.622847500000028559e-04
 2.102782499999959059e-04
 1.198401749999999585e-03
 1.146395250000004779e-03
 1.094388750000004767e-03
 1.042382249999992613e-03
 9.903757500000047453e-04
 9.383692500000012648e-04
 8.863627499999977843e-04
 8.343562499999977733e-04
 7.823497499999977622e-04
 7.303432500000012206e-04
 6.783367499999994749e-04
 6.263302500000011985e-04
 5.743237500000029222e-04
 5.223172499999959723e-04
 4.703107499999924918e-04