<VTKFile type="UnstructuredGrid" byte_order="BigEndian">
<UnstructuredGrid><Piece NumberOfPoints="231" NumberOfCells="200">
<Points>
 <DataArray type="Float32" NumberOfComponents="3" format="ascii">
 0.000000000000000000e+00 0.000000000000000000e+00 0.000000000000000000e+00
 4.940000176429748535e-02 0.000000000000000000e+00 0.000000000000000000e+00
 9.880000352859497070e-02 0.000000000000000000e+00 0.000000000000000000e+00
 1.482000052928924561e-01 0.000000000000000000e+00 0.000000000000000000e+00
 1.976000070571899414e-01 0.000000000000000000e+00 0.000000000000000000e+00
 2.469999939203262329e-01 0.000000000000000000e+00 0.000000000000000000e+00
 2.964000105857849121e-01 0.000000000000000000e+00 0.000000000000000000e+00
 3.458000123500823975e-01 0.000000000000000000e+00 0.000000000000000000e+00
 3.952000141143798828e-01 0.000000000000000000e+00 0.000000000000000000e+00
 4.445999860763549805e-01 0.000000000000000000e+00 0.000000000000000000e+00
 4.939999878406524658e-01 0.000000000000000000e+00 0.000000000000000000e+00
 5.433999896049499512e-01 0.000000000000000000e+00 0.000000000000000000e+00
 5.928000211715698242e-01 0.000000000000000000e+00 0.000000000000000000e+00
 6.421999931335449219e-01 0.000000000000000000e+00 0.000000000000000000e+00
 6.916000247001647949e-01 0.000000000000000000e+00 0.000000000000000000e+00
 7.409999966621398926e-01 0.000000000000000000e+00 0.000000000000000000e+00
 7.904000282287597656e-01 0.000000000000000000e+00 0.000000000000000000e+00
 8.398000001907348633e-01 0.000000000000000000e+00 0.000000000000000000e+00
 8.891999721527099609e-01 0.000000000000000000e+00 0.000000000000000000e+00
 9.386000037193298340e-01 0.000000000000000000e+00 0.000000000000000000e+00
 9.879999756813049316e-01 0.000000000000000000e+00 0.000000000000000000e+00
 0.000000000000000000e+00 5.409999936819076538e-02 0.000000000000000000e+00
 4.940000176429748535e-02 5.332500115036964417e-02 0.000000000000000000e+00
 9.880000352859497070e-02 5.254999920725822449e-02 0.000000000000000000e+00
 1.482000052928924561e-01 5.177500098943710327e-02 0.000000000000000000e+00
 1.976000070571899414e-01 5.099999904632568359e-02 0.000000000000000000e+00
 2.469999939203262329e-01 5.022500082850456238e-02 0.000000000000000000e+00
 2.964000105857849121e-01 4.944999888539314270e-02 0.000000000000000000e+00
 3.458000123500823975e-01 4.867500066757202148e-02 0.000000000000000000e+00
 3.952000141143798828e-01 4.789999872446060181e-02 0.000000000000000000e+00
 4.445999860763549805e-01 4.712500050663948059e-02 0.000000000000000000e+00
 4.939999878406524658e-01 4.634999856352806091e-02 0.000000000000000000e+00
 5.433999896049499512e-01 4.557500034570693970e-02 0.000000000000000000e+00
 5.928000211715698242e-01 4.479999840259552002e-02 0.000000000000000000e+00
 6.421999931335449219e-01 4.402500018477439880e-02 0.000000000000000000e+00
 6.916000247001647949e-01 4.324999824166297913e-02 0.000000000000000000e+00
 7.409999966621398926e-01 4.247500002384185791e-02 0.000000000000000000e+00
 7.904000282287597656e-01 4.170000180602073669e-02 0.000000000000000000e+00
 8.398000001907348633e-01 4.092499986290931702e-02 0.000000000000000000e+00
 8.891999721527099609e-01 4.015000164508819580e-02 0.000000000000000000e+00
 9.386000037193298340e-01 3.937499970197677612e-02 0.000000000000000000e+00
 9.879999756813049316e-01 3.860000148415565491e-02 0.000000000000000000e+00
 0.000000000000000000e+00 1.081999987363815308e-01 0.000000000000000000e+00
 4.940000176429748535e-02 1.066500023007392883e-01 0.000000000000000000e+00
 9.880000352859497070e-02 1.050999984145164490e-01 0.000000000000000000e+00
 1.482000052928924561e-01 1.035500019788742065e-01 0.000000000000000000e+00
 1.976000070571899414e-01 1.019999980926513672e-01 0.000000000000000000e+00
 2.469999939203262329e-01 1.004500016570091248e-01 0.000000000000000000e+00
 2.964000105857849121e-01 9.889999777078628540e-02 0.000000000000000000e+00
 3.458000123500823975e-01 9.735000133514404297e-02 0.000000000000000000e+00
 3.952000141143798828e-01 9.579999744892120361e-02 0.000000000000000000e+00
 4.445999860763549805e-01 9.425000101327896118e-02 0.000000000000000000e+00
 4.939999878406524658e-01 9.269999712705612183e-02 0.000000000000000000e+00
 5.433999896049499512e-01 9.115000069141387939e-02 0.000000000000000000e+00
 5.928000211715698242e-01 8.959999680519104004e-02 0.000000000000000000e+00
 6.421999931335449219e-01 8.805000036954879761e-02 0.000000000000000000e+00
 6.916000247001647949e-01 8.649999648332595825e-02 0.000000000000000000e+00
 7.409999966621398926e-01 8.495000004768371582e-02 0.000000000000000000e+00
 7.904000282287597656e-01 8.340000361204147339e-02 0.000000000000000000e+00
 8.398000001907348633e-01 8.184999972581863403e-02 0.000000000000000000e+00
 8.891999721527099609e-01 8.030000329017639160e-02 0.000000000000000000e+00
 9.386000037193298340e-01 7.874999940395355225e-02 0.000000000000000000e+00
 9.879999756813049316e-01 7.720000296831130981e-02 0.000000000000000000e+00
 0.000000000000000000e+00 1.623000055551528931e-01 0.000000000000000000e+00
 4.940000176429748535e-02 1.599750071763992310e-01 0.000000000000000000e+00
 9.880000352859497070e-02 1.576499938964843750e-01 0.000000000000000000e+00
 1.482000052928924561e-01 1.553249955177307129e-01 0.000000000000000000e+00
 1.976000070571899414e-01 1.529999971389770508e-01 0.000000000000000000e+00
 2.469999939203262329e-01 1.506749987602233887e-01 0.000000000000000000e+00
 2.964000105857849121e-01 1.483500003814697266e-01 0.000000000000000000e+00
 3.458000123500823975e-01 1.460250020027160645e-01 0.000000000000000000e+00
 3.952000141143798828e-01 1.437000036239624023e-01 0.000000000000000000e+00
 4.445999860763549805e-01 1.413750052452087402e-01 0.000000000000000000e+00
 4.939999878406524658e-01 1.390500068664550781e-01 0.000000000000000000e+00
 5.433999896049499512e-01 1.367249935865402222e-01 0.000000000000000000e+00
 5.928000211715698242e-01 1.343999952077865601e-01 0.000000000000000000e+00
 6.421999931335449219e-01 1.320749968290328979e-01 0.000000000000000000e+00
 6.916000247001647949e-01 1.297499984502792358e-01 0.000000000000000000e+00
 7.409999966621398926e-01 1.274250000715255737e-01 0.000000000000000000e+00
 7.904000282287597656e-01 1.251000016927719116e-01 0.000000000000000000e+00
 8.398000001907348633e-01 1.227750033140182495e-01 0.000000000000000000e+00
 8.891999721527099609e-01 1.204499974846839905e-01 0.000000000000000000e+00
 9.386000037193298340e-01 1.181249991059303284e-01 0.000000000000000000e+00
 9.879999756813049316e-01 1.158000007271766663e-01 0.000000000000000000e+00
 0.000000000000000000e+00 2.163999974727630615e-01 0.000000000000000000e+00
 4.940000176429748535e-02 2.133000046014785767e-01 0.000000000000000000e+00
 9.880000352859497070e-02 2.101999968290328979e-01 0.000000000000000000e+00
 1.482000052928924561e-01 2.071000039577484131e-01 0.000000000000000000e+00
 1.976000070571899414e-01 2.039999961853027344e-01 0.000000000000000000e+00
 2.469999939203262329e-01 2.009000033140182495e-01 0.000000000000000000e+00
 2.964000105857849121e-01 1.977999955415725708e-01 0.000000000000000000e+00
 3.458000123500823975e-01 1.947000026702880859e-01 0.000000000000000000e+00
 3.952000141143798828e-01 1.915999948978424072e-01 0.000000000000000000e+00
 4.445999860763549805e-01 1.885000020265579224e-01 0.000000000000000000e+00
 4.939999878406524658e-01 1.853999942541122437e-01 0.000000000000000000e+00
 5.433999896049499512e-01 1.823000013828277588e-01 0.000000000000000000e+00
 5.928000211715698242e-01 1.791999936103820801e-01 0.000000000000000000e+00
 6.421999931335449219e-01 1.761000007390975952e-01 0.000000000000000000e+00
 6.916000247001647949e-01 1.729999929666519165e-01 0.000000000000000000e+00
 7.409999966621398926e-01 1.699000000953674316e-01 0.000000000000000000e+00
 7.904000282287597656e-01 1.668000072240829468e-01 0.000000000000000000e+00
 8.398000001907348633e-01 1.636999994516372681e-01 0.000000000000000000e+00
 8.891999721527099609e-01 1.606000065803527832e-01 0.000000000000000000e+00
 9.386000037193298340e-01 1.574999988079071045e-01 0.000000000000000000e+00
 9.879999756813049316e-01 1.544000059366226196e-01 0.000000000000000000e+00
 0.000000000000000000e+00 2.705000042915344238e-01 0.000000000000000000e+00
 4.940000176429748535e-02 2.666249871253967285e-01 0.000000000000000000e+00
 9.880000352859497070e-02 2.627499997615814209e-01 0.000000000000000000e+00
 1.482000052928924561e-01 2.588750123977661133e-01 0.000000000000000000e+00
 1.976000070571899414e-01 2.549999952316284180e-01 0.000000000000000000e+00
 2.469999939203262329e-01 2.511250078678131104e-01 0.000000000000000000e+00
 2.964000105857849121e-01 2.472500056028366089e-01 0.000000000000000000e+00
 3.458000123500823975e-01 2.433750033378601074e-01 0.000000000000000000e+00
 3.952000141143798828e-01 2.395000010728836060e-01 0.000000000000000000e+00
 4.445999860763549805e-01 2.356249988079071045e-01 0.000000000000000000e+00
 4.939999878406524658e-01 2.317499965429306030e-01 0.000000000000000000e+00
 5.433999896049499512e-01 2.278749942779541016e-01 0.000000000000000000e+00
 5.928000211715698242e-01 2.240000069141387939e-01 0.000000000000000000e+00
 6.421999931335449219e-01 2.201250046491622925e-01 0.000000000000000000e+00
 6.916000247001647949e-01 2.162500023841857910e-01 0.000000000000000000e+00
 7.409999966621398926e-01 2.123750001192092896e-01 0.000000000000000000e+00
 7.904000282287597656e-01 2.084999978542327881e-01 0.000000000000000000e+00
 8.398000001907348633e-01 2.046249955892562866e-01 0.000000000000000000e+00
 8.891999721527099609e-01 2.007499933242797852e-01 0.000000000000000000e+00
 9.386000037193298340e-01 1.968750059604644775e-01 0.000000000000000000e+00
 9.879999756813049316e-01 1.930000036954879761e-01 0.000000000000000000e+00
 0.000000000000000000e+00 3.246000111103057861e-01 0.000000000000000000e+00
 4.940000176429748535e-02 3.199500143527984619e-01 0.000000000000000000e+00
[...]
<CellData>
 <DataArray Name="pos.x" type="Float32" NumberOfComponents="1" format="ascii">
 2.464060197036692032e-02
 7.403973238882327612e-02
 1.234388369678089542e-01
 1.728379145382308302e-01
 2.222369638593892083e-01
 2.716359836134099037e-01
 3.210349723991510196e-01
 3.704339287255156155e-01
 4.198328510041216544e-01
 4.692317375412323743e-01
 5.186305865288732830e-01
 5.680293960350387694e-01
 6.174281639928711485e-01
 6.668268881886754151e-01
 7.162255662486616270e-01
 7.656241956241955915e-01
 8.150227735753943215e-01
 8.644212971528402178e-01
 9.138197631772009277e-01
 9.632181682163110104e-01
 2.464060197036692726e-02
 7.403973238882327612e-02
 1.234388369678088432e-01
 1.728379145382308024e-01
 2.222369638593892638e-01
 2.716359836134102923e-01
 3.210349723991512416e-01
 3.704339287255155599e-01
 4.198328510041213768e-01
 4.692317375412316527e-01
 5.186305865288735051e-01
 5.680293960350391025e-01
 6.174281639928712595e-01
 6.668268881886754151e-01
 7.162255662486624042e-01
 7.656241956241965907e-01
 8.150227735753855507e-01
 8.644212971528443257e-01
 9.138197631772000396e-01
 9.632181682163110104e-01
 2.464060197036693767e-02
 7.403973238882330388e-02
 1.234388369678089403e-01
 1.728379145382308579e-01
 2.222369638593892638e-01
 2.716359836134101258e-01
 3.210349723991508530e-01
 3.704339287255165591e-01
 4.198328510041212103e-01
 4.692317375412320413e-01
 5.186305865288731720e-01
 5.680293960350392135e-01
 6.174281639928684839e-01
 6.668268881886738608e-01
 7.162255662486640695e-01
 7.656241956241985891e-01
 8.150227735753916569e-01
 8.644212971528424383e-01
 9.138197631771962648e-01
 9.632181682163104552e-01
 2.464060197036690991e-02
 7.403973238882327612e-02
 1.234388369678089542e-01
 1.728379145382308302e-01
 2.222369638593891805e-01
 2.716359836134102923e-01
 3.210349723991501869e-01
 3.704339287255155599e-01
 4.198328510041211548e-01
 4.692317375412323743e-01
 5.186305865288731720e-01
 5.680293960350394356e-01
 6.174281639928700383e-01
 6.668268881886735278e-01
 7.162255662486638474e-01
 7.656241956241965907e-01
 8.150227735753937663e-01
 8.644212971528425493e-01
 9.138197631771955987e-01
 9.632181682163128977e-01
 2.464060197036693767e-02
 7.403973238882327612e-02
 1.234388369678089542e-01
 1.728379145382308302e-01
 2.222369638593892915e-01
 2.716359836134102923e-01
 3.210349723991505755e-01
 3.704339287255158375e-01
 4.198328510041212103e-01
 4.692317375412328184e-01
 5.186305865288742822e-01
 5.680293960350389915e-01
 6.174281639928698162e-01
 6.668268881886763033e-01
 7.162255662486638474e-01
 7.656241956241958135e-01
 8.150227735753887703e-01
 8.644212971528433265e-01
 9.138197631771975971e-01
 9.632181682163104552e-01
 2.464060197036691338e-02
 7.403973238882327612e-02
 1.234388369678089542e-01
 1.728379145382307192e-01
 2.222369638593892083e-01
 2.716359836134102923e-01
 3.210349723991506865e-01
 3.704339287255156710e-01
 4.198328510041210437e-01
 4.692317375412332625e-01
 5.186305865288728389e-01
 5.680293960350394356e-01
 6.174281639928700383e-01
 6.668268881886763033e-01
 7.162255662486631813e-01
 7.656241956241961466e-01
 8.150227735753898806e-01
 8.644212971528422162e-01
 9.138197631771998175e-01
 9.632181682163092340e-01
 2.464060197036690644e-02
 7.403973238882331775e-02
 1.234388369678089542e-01
 1.728379145382306914e-01
 2.222369638593892915e-01
 2.716359836134101258e-01
 3.210349723991506310e-01
 3.704339287255158375e-01
 4.198328510041220984e-01
 4.692317375412322633e-01
 5.186305865288732830e-01
 5.680293960350389915e-01
 6.174281639928704823e-01
 6.668268881886758592e-01
 7.162255662486640695e-01
 7.656241956241963686e-01
 8.150227735753911018e-01
 8.644212971528424383e-01
 9.138197631771989293e-01
 9.632181682163090120e-01
 2.464060197036692726e-02
 7.403973238882331775e-02
 1.234388369678089542e-01
 1.728379145382308302e-01
 2.222369638593892915e-01
 2.716359836134102923e-01
 3.210349723991509086e-01
 3.704339287255154489e-01
 4.198328510041224870e-01
 4.692317375412323743e-01
 5.186305865288740602e-01
 5.680293960350384364e-01
 6.174281639928709264e-01
 6.668268881886754151e-01
 7.162255662486627372e-01
 7.656241956241960356e-01
 8.150227735753911018e-01
 8.644212971528424383e-01
 9.138197631771932672e-01
 9.632181682163123426e-01
 2.464060197036691338e-02
 7.403973238882327612e-02
 1.234388369678089820e-01
 1.728379145382306914e-01
 2.222369638593894303e-01
 2.716359836134102923e-01
 3.210349723991512416e-01
 3.704339287255150048e-01
 4.198328510041218209e-01
 4.692317375412324854e-01
 5.186305865288732830e-01
 5.680293960350385474e-01
 6.174281639928694831e-01
 6.668268881886767474e-01
 7.162255662486614050e-01
 7.656241956241949254e-01
 8.150227735753932112e-01
 8.644212971528375533e-01
 9.138197631771998175e-01
 9.632181682163099001e-01
 2.464060197036694461e-02
 7.403973238882327612e-02
 1.234388369678089542e-01
 1.728379145382307192e-01
 2.222369638593894026e-01
 2.716359836134101258e-01
 3.210349723991507420e-01
 3.704339287255159485e-01
 4.198328510041215988e-01
 4.692317375412322633e-01
 5.186305865288728389e-01
 5.680293960350385474e-01
 6.174281639928710375e-01
 6.668268881886747490e-01
 7.162255662486630703e-01
 7.656241956241942592e-01
 8.150227735753911018e-01
 8.644212971528437706e-01
 9.138197631771962648e-01
 9.632181682163136749e-01
 </DataArray>
 <DataArray Name="pos.y" type="Float32" NumberOfComponents="1" format="ascii">
 2.685671592583974143e-02
 2.646922274695001631e-02
 2.608172977074848034e-02
 2.569423700640559305e-02
 2.530674446365358682e-02
 2.491925215283003620e-02
 2.453176008492568769e-02
 2.414426827163690045e-02
 2.375677672542314198e-02
 2.336928545957029507e-02
 2.298179448826036253e-02
 2.259430382664823558e-02
 2.220681349094663290e-02
 2.181932349852000116e-02
 2.143183386798870257e-02
 2.104434461934460987e-02
 2.065685577407974996e-02
 2.026936735532942901e-02
 1.988187938803318011e-02
 1.949439189911297138e-02
 8.057014777751923817e-02
 7.940766824085007669e-02
 7.824518931224534735e-02
 7.708271101921675139e-02
 7.592023339096078127e-02
 7.475775645849014328e-02
 7.359528025477717061e-02
 7.243280481491067013e-02
 7.127033017626943634e-02
 7.010785637871080889e-02
 6.894538346478110147e-02
 6.778291147994471022e-02
 6.662044047283997850e-02
 6.545797049556001390e-02
 6.429550160396609038e-02
 6.313303385803395451e-02
 6.197056732223874681e-02
 6.080810206598845358e-02
 5.964563816409947095e-02
 5.848317569733889332e-02
 1.342835796291987627e-01
 1.323461137347500816e-01
 1.304086488537423150e-01
 1.284711850320279791e-01
 1.265337223182679549e-01
 1.245962607641501602e-01
 1.226588004246283586e-01
 1.207213413581846445e-01
 1.187838836271155468e-01
 1.168464272978513990e-01
 1.149089724413019237e-01
 1.129715191332411051e-01
 1.110340674547329043e-01
 1.090966174925997595e-01
 1.071591693399435441e-01
 1.052217230967233547e-01
 1.032842788703983994e-01
 1.013468367766473394e-01
 9.940939694016533157e-02
 9.747195949556484995e-02
 1.879970114808781900e-01
 1.852845592286501697e-01
 1.825721083952392132e-01
 1.798596590448390820e-01
 1.771472112455751147e-01
 1.744347650698102048e-01
 1.717223205944797548e-01
 1.690098779014583552e-01
 1.662974370779618793e-01
 1.635849982169920447e-01
 1.608725614178224128e-01
 1.581601267865376526e-01
 1.554476944366263713e-01
 1.527352644896398104e-01
 1.500228370759211227e-01
 1.473104123354125328e-01
 1.445979904185582254e-01
 1.418855714873061835e-01
 1.391731557162314559e-01
 1.364607432937910703e-01
 2.417104433325575341e-01
 2.382230047225501746e-01
 2.347355679367362224e-01
 2.312481330576503513e-01
 2.277607001728822744e-01
 2.242732693754702911e-01
 2.207858407643311094e-01
 2.172984144447322741e-01
 2.138109905288080315e-01
 2.103235691361326765e-01
 2.068361503943436375e-01
 2.033487344398339780e-01
 1.998613214185195330e-01
 1.963739114866803748e-01
 1.928865048118985348e-01
 1.893991015741015582e-01
 1.859117019667168025e-01
 1.824243061979651248e-01
 1.789369144922980936e-01
 1.754495270920169714e-01
 2.954238751842372390e-01
 2.911614502164502905e-01
 2.868990274782331484e-01
 2.826366070704612321e-01
 2.783741891001894619e-01
 2.741117736811303773e-01
 2.698493609341823807e-01
 2.655869509880061097e-01
 2.613245439796542668e-01
 2.570621400552738356e-01
 2.527997393708640850e-01
 2.485373420931306365e-01
 2.442749484004128613e-01
 2.400125584837201898e-01
 2.357501725478760024e-01
 2.314877908127908057e-01
 2.272254135148761844e-01
 2.229630409086238996e-01
 2.187006732683644261e-01
 2.144383108902423452e-01
 3.491373070359165554e-01
 3.440998957103503231e-01
 3.390624870197302410e-01
 3.340250810832723349e-01
 3.289876780274967882e-01
 3.239502779867904358e-01
 3.189128811040339850e-01
 3.138754875312796955e-01
 3.088380974305011684e-01
 3.038007109744140788e-01
 2.987633283473846713e-01
 2.937259497464272395e-01
 2.886885753823062450e-01
 2.836512054807603933e-01
 2.786138402838537753e-01
 2.735764800514803863e-01
 2.685391250630361770e-01
 2.635017756192826743e-01
 2.584644320444305921e-01
 2.534270946884685238e-01
 4.028507388875962048e-01
 3.970383412042504667e-01
 3.912259465612266118e-01
 3.854135550960838263e-01
 3.796011669548042256e-01
 3.737887822924506054e-01
 3.679764012738855339e-01
 3.621640240745533923e-01
 3.563516508813472372e-01
 3.505392818935545995e-01
 3.447269173239058127e-01
 3.389145573997231486e-01
 3.331022023642000174e-01
 3.272898524777998475e-01
 3.214775080198304380e-01
 3.156651692901697448e-01
 3.098528366111952259e-01
 3.040405103299415601e-01
 2.982281908204959531e-01
 2.924158784866954797e-01
 4.565641707392751325e-01
 4.499767866981503328e-01
 4.433894061027242595e-01
 4.368020291088948182e-01
 4.302146558821111633e-01
 4.236272865981103308e-01
 4.170399214437371938e-01
 4.104525606178265895e-01
 4.038652043321934726e-01
 3.972778528126949538e-01
 3.906905063004263434e-01
 3.841031650530193353e-01
 3.775158293460922909e-01
 3.709284994748411335e-01
 3.643411757558074338e-01
 3.577538585288593254e-01
 3.511665481593555516e-01
 3.445792450405988361e-01
 3.379919495965631460e-01
 3.314046622849208812e-01
 5.102776025909546709e-01
 5.029152321920505875e-01
 4.955528656442202973e-01
 4.881905031217061985e-01
 4.808281448094181565e-01
 4.734657909037706114e-01
 4.661034416135881320e-01
 4.587410971611021182e-01
 4.513787577830394304e-01
 4.440164237318349194e-01
 4.366540952769467632e-01
 4.292917727063157440e-01
 4.219294563279866184e-01
 4.145671464718791999e-01
 4.072048434917858728e-01
 3.998425477675465745e-01
 3.924802597075140453e-01
 3.851179797512596092e-01
 3.777557083726283405e-01
 3.703934460831478925e-01
 </DataArray>
 <DataArray Name="pos.z" type="Float32" NumberOfComponents="1" format="ascii">
 0.000000000000000000e+00
 0.000000000000000000e+00
 0.000000000000000000e+00
 0.000000000000000000e+00
 0.000000000000000000e+00
 0.000000000000000000e+00
 0.000000000000000000e+00
 0.000000000000000000e+00
 0.000000000000000000e+00
 0.000000000000000000e+00
 0.000000000000000000e+00
 0.000000000000000000e+00
 0.000000000000000000e+00
 0.000000000000000000e+00
 0.000000000000000000e+00
 0.000000000000000000e+00
 0.000000000000000000e+00
 0.000000000000000000e+00
 0.000000000000000000e+00
 0.000000000000000000e+00
 0.000000000000000000e+00
 0.000000000000000000e+00
 0.000000000000000000e+00
 0.000000000000000000e+00
 0.000000000000000000e+00
 0.000000000000000000e+00
 0.000000000000000000e+00
 0.000000000000000000e+00
 0.000000000000000000e+00
 0.000000000000000000e+00
 0.000000000000000000e+00
 0.000000000000000000e+00
 0.000000000000000000e+00
 0.000000000000000000e+00
 0.000000000000000000e+00
 0.000000000000000000e+00
 0.000000000000000000e+00
 0.000000000000000000e+00
 0.000000000000000000e+00
 0.000000000000000000e+00
 0.000000000000000000e+00
 0.000000000000000000e+00
 0.000000000000000000e+00
 0.000000000000000000e+00
 0.000000000000000000e+00
 0.000000000000000000e+00
 0.000000000000000000e+00
 0.000000000000000000e+00
 0.000000000000000000e+00
 0.000000000000000000e+00
 0.000000000000000000e+00
 0.000000000000000000e+00
 0.000000000000000000e+00
 0.000000000000000000e+00
 0.000000000000000000e+00
 0.000000000000000000e+00
 0.000000000000000000e+00
 0.000000000000000000e+00
 0.000000000000000000e+00
 0.000000000000000000e+00
 0.000000000000000000e+00
 0.000000000000000000e+00
 0.000000000000000000e+00
 0.000000000000000000e+00
 0.000000000000000000e+00
 0.000000000000000000e+00
 0.000000000000000000e+00
 0.000000000000000000e+00
 0.000000000000000000e+00
 0.000000000000000000e+00
 0.000000000000000000e+00
 0.000000000000000000e+00
 0.000000000000000000e+00
 0.000000000000000000e+00
 0.000000000000000000e+00
 0.000000000000000000e+00
 0.000000000000000000e+00
 0.000000000000000000e+00
 0.000000000000000000e+00
 0.000000000000000000e+00
 0.000000000000000000e+00
 0.000000000000000000e+00
 0.000000000000000000e+00
 0.000000000000000000e+00
 0.000000000000000000e+00
 0.000000000000000000e+00
 0.000000000000000000e+00
 0.000000000000000000e+00
 0.000000000000000000e+00
 0.000000000000000000e+00
 0.000000000000000000e+00
 0.000000000000000000e+00
 0.000000000000000000e+00
 0.000000000000000000e+00
 0.000000000000000000e+00
 0.000000000000000000e+00
 0.000000000000000000e+00
 0.000000000000000000e+00
 0.000000000000000000e+00
 0.000000000000000000e+00
 0.000000000000000000e+00
 0.000000000000000000e+00
 0.000000000000000000e+00
 0.000000000000000000e+00
 0.000000000000000000e+00
 0.000000000000000000e+00
 0.000000000000000000e+00
 0.000000000000000000e+00
 0.000000000000000000e+00
 0.000000000000000000e+00
 0.000000000000000000e+00
 0.000000000000000000e+00
 0.000000000000000000e+00
 0.000000000000000000e+00
 0.000000000000000000e+00
 0.000000000000000000e+00
 0.000000000000000000e+00
 0.000000000000000000e+00
 0.000000000000000000e+00
 0.000000000000000000e+00
 0.000000000000000000e+00
 0.000000000000000000e+00
 0.000000000000000000e+00
 0.000000000000000000e+00
 0.000000000000000000e+00
 0.000000000000000000e+00
 0.000000000000000000e+00
 0.000000000000000000e+00
 0.000000000000000000e+00
 0.000000000000000000e+00
 0.000000000000000000e+00
 0.000000000000000000e+00
 0.000000000000000000e+00
 0.000000000000000000e+00
 0.000000000000000000e+00
 0.000000000000000000e+00
 0.000000000000000000e+00
 0.000000000000000000e+00
 0.000000000000000000e+00
 0.000000000000000000e+00
 0.000000000000000000e+00
 0.000000000000000000e+00
 0.000000000000000000e+00
 0.000000000000000000e+00
 0.000000000000000000e+00
 0.000000000000000000e+00
 0.000000000000000000e+00
 0.000000000000000000e+00
 0.000000000000000000e+00
 0.000000000000000000e+00
 0.000000000000000000e+00
 0.000000000000000000e+00
 0.000000000000000000e+00
 0.000000000000000000e+00
 0.000000000000000000e+00
 0.000000000000000000e+00
 0.000000000000000000e+00
 0.000000000000000000e+00
 0.000000000000000000e+00
 0.000000000000000000e+00
 0.000000000000000000e+00
 0.000000000000000000e+00
 0.000000000000000000e+00
 0.000000000000000000e+00
 0.000000000000000000e+00
 0.000000000000000000e+00
 0.000000000000000000e+00
 0.000000000000000000e+00
 0.000000000000000000e+00
 0.000000000000000000e+00
 0.000000000000000000e+00
 0.000000000000000000e+00
 0.000000000000000000e+00
 0.000000000000000000e+00
 0.000000000000000000e+00
 0.000000000000000000e+00
 0.000000000000000000e+00
 0.000000000000000000e+00
 0.000000000000000000e+00
 0.000000000000000000e+00
 0.000000000000000000e+00
 0.000000000000000000e+00
 0.000000000000000000e+00
 0.000000000000000000e+00
 0.000000000000000000e+00
 0.000000000000000000e+00
 0.000000000000000000e+00
 0.000000000000000000e+00
 0.000000000000000000e+00
 0.000000000000000000e+00
 0.000000000000000000e+00
 0.000000000000000000e+00
 0.000000000000000000e+00
 0.000000000000000000e+00
 0.000000000000000000e+00
 0.000000000000000000e+00
 0.000000000000000000e+00
 0.000000000000000000e+00
 0.000000000000000000e+00
 0.000000000000000000e+00
 </DataArray>
 <DataArray Name="volume" type="Float32" NumberOfComponents="1" format="ascii">
 2.653397500000000651e-03
 2.615112500000000770e-03
 2.576827500000003490e-03
 2.538542499999997537e-03
 2.500257500000001992e-03
 2.461972500000006881e-03
 2.423687500000000494e-03
 2.385402499999994541e-03
 2.347117499999998996e-03
 2.308832500000003451e-03
 2.270547499999994463e-03
 2.232262500000015831e-03
 2.193977499999989061e-03
 2.155692500000010864e-03
 2.117407499999997972e-03
 2.079122499999995488e-03
 2.040837499999996474e-03
 2.002552499999997460e-03
 1.964267499999998879e-03
 1.925982499999999431e-03
 2.653397500000000651e-03
 2.615112500000000770e-03
 2.576827500000004358e-03
 2.538542499999996670e-03
 2.500257500000003293e-03
 2.461972500000003412e-03
 2.423687499999998326e-03
 2.385402499999998878e-03
 2.347117499999997695e-03
 2.308832500000006054e-03
 2.270547499999991860e-03
 2.232262500000013663e-03
 2.193977499999987327e-03
 2.155692500000012165e-03
 2.117407499999997972e-03
 2.079122499999995488e-03
 2.040837500000020760e-03
 2.002552499999982714e-03
 1.964267500000010155e-03
 1.925982499999989890e-03
 2.653397500000000651e-03
 2.615112500000000770e-03
 2.576827499999999153e-03
 2.538542499999996670e-03
 2.500257500000004594e-03
 2.461972500000002978e-03
 2.423687500000002229e-03
 2.385402499999995842e-03
 2.347117500000002466e-03
 2.308832500000007355e-03
 2.270547499999993162e-03
 2.232262500000008025e-03
 2.193977499999999470e-03
 2.155692500000010430e-03
 2.117407499999997538e-03
 2.079122499999995488e-03
 2.040837500000013387e-03
 2.002552499999981847e-03
 1.964267500000016660e-03
 1.925982499999991842e-03
 2.653397499999999784e-03
 2.615112500000000770e-03
 2.576827500000004358e-03
 2.538542500000000573e-03
 2.500257500000001992e-03
 2.461972500000002978e-03
 2.423687500000004831e-03
 2.385402499999995842e-03
 2.347117499999999430e-03
 2.308832500000001717e-03
 2.270547499999998799e-03
 2.232262500000004989e-03
 2.193977499999994699e-03
 2.155692500000014333e-03
 2.117407499999995803e-03
 2.079122499999995054e-03
 2.040837500000002979e-03
 2.002552499999987485e-03
 1.964267500000008420e-03
 1.925982499999994227e-03
 2.653397500000001519e-03
 2.615112500000003806e-03
 2.576827500000001755e-03
 2.538542499999996670e-03
 2.500257499999999390e-03
 2.461972500000001677e-03
 2.423687500000004397e-03
 2.385402499999992806e-03
 2.347117500000004200e-03
 2.308832500000004319e-03
 2.270547499999994896e-03
 2.232262500000006724e-03
 2.193977499999996000e-03
 2.155692500000005226e-03
 2.117407499999994069e-03
 2.079122499999995922e-03
 2.040837500000014688e-03
 2.002552499999988352e-03
 1.964267500000004951e-03
 1.925982499999999214e-03
 2.653397500000001519e-03
 2.615112499999999035e-03
 2.576827499999997419e-03
 2.538542500000000573e-03
 2.500257500000007196e-03
 2.461972500000002111e-03
 2.423687500000002663e-03
 2.385402499999996276e-03
 2.347117500000002466e-03
 2.308832500000002150e-03
 2.270547499999997065e-03
 2.232262500000004122e-03
 2.193977499999999036e-03
 2.155692500000005660e-03
 2.117407499999994069e-03
 2.079122499999997223e-03
 2.040837500000011653e-03
 2.002552499999990087e-03
 1.964267500000004951e-03
 1.925982500000004635e-03
 2.653397499999996315e-03
 2.615112499999999035e-03
 2.576827500000006526e-03
 2.538542499999998838e-03
 2.500257499999997655e-03
 2.461972500000006014e-03
 2.423687500000007867e-03
 2.385402499999996710e-03
 2.347117500000006369e-03
 2.308832499999999982e-03
 2.270547499999997065e-03
 2.232262500000004122e-03
 2.193977499999992965e-03
 2.155692500000010864e-03
 2.117407499999994936e-03
 2.079122499999990284e-03
 2.040837500000005147e-03
 2.002552499999998327e-03
 1.964267499999998012e-03
 1.925982499999999431e-03
 2.653397500000004121e-03
 2.615112500000000770e-03
 2.576827500000003057e-03
 2.538542500000003175e-03
 2.500257500000003293e-03
 2.461972499999999509e-03
 2.423687500000002229e-03
 2.385402499999993674e-03
 2.347117499999992057e-03
 2.308832499999995645e-03
 2.270547499999994896e-03
 2.232262500000008459e-03
 2.193977499999990796e-03
 2.155692500000015634e-03
 2.117407499999998839e-03