<VTKFile type="UnstructuredGrid" byte_order="BigEndian">
<UnstructuredGrid><Piece NumberOfPoints="231" NumberOfCells="200">
<Points>
 <DataArray type="Float32" NumberOfComponents="3" format="ascii">
 9.879999756813049316e-01 0.000000000000000000e+00 0.000000000000000000e+00
 1.028949975967407227e+00 0.000000000000000000e+00 0.000000000000000000e+00
 1.069900035858154297e+00 0.000000000000000000e+00 0.000000000000000000e+00
 1.110849976539611816e+00 0.000000000000000000e+00 0.000000000000000000e+00
 1.151800036430358887e+00 0.000000000000000000e+00 0.000000000000000000e+00
 1.192749977111816406e+00 0.000000000000000000e+00 0.000000000000000000e+00
 1.233700037002563477e+00 0.000000000000000000e+00 0.000000000000000000e+00
 1.274649977684020996e+00 0.000000000000000000e+00 0.000000000000000000e+00
 1.315600037574768066e+00 0.000000000000000000e+00 0.000000000000000000e+00
 1.356549978256225586e+00 0.000000000000000000e+00 0.000000000000000000e+00
 1.397500038146972656e+00 0.000000000000000000e+00 0.000000000000000000e+00
 1.438449978828430176e+00 0.000000000000000000e+00 0.000000000000000000e+00
 1.479400038719177246e+00 0.000000000000000000e+00 0.000000000000000000e+00
 1.520349979400634766e+00 0.000000000000000000e+00 0.000000000000000000e+00
 1.561300039291381836e+00 0.000000000000000000e+00 0.000000000000000000e+00
 1.602249979972839355e+00 0.000000000000000000e+00 0.000000000000000000e+00
 1.643200039863586426e+00 0.000000000000000000e+00 0.000000000000000000e+00
 1.684149980545043945e+00 0.000000000000000000e+00 0.000000000000000000e+00
 1.725100040435791016e+00 0.000000000000000000e+00 0.000000000000000000e+00
 1.766049981117248535e+00 0.000000000000000000e+00 0.000000000000000000e+00
 1.807000041007995605e+00 0.000000000000000000e+00 0.000000000000000000e+00
 9.879999756813049316e-01 2.989999949932098389e-02 0.000000000000000000e+00
 1.028949975967407227e+00 2.862999960780143738e-02 0.000000000000000000e+00
 1.069900035858154297e+00 2.735999971628189087e-02 0.000000000000000000e+00
 1.110849976539611816e+00 2.608999982476234436e-02 0.000000000000000000e+00
 1.151800036430358887e+00 2.481999993324279785e-02 0.000000000000000000e+00
 1.192749977111816406e+00 2.355000004172325134e-02 0.000000000000000000e+00
 1.233700037002563477e+00 2.228000015020370483e-02 0.000000000000000000e+00
 1.274649977684020996e+00 2.101000025868415833e-02 0.000000000000000000e+00
 1.315600037574768066e+00 1.974000036716461182e-02 0.000000000000000000e+00
 1.356549978256225586e+00 1.847000047564506531e-02 0.000000000000000000e+00
 1.397500038146972656e+00 1.720000058412551880e-02 0.000000000000000000e+00
 1.438449978828430176e+00 1.593000069260597229e-02 0.000000000000000000e+00
 1.479400038719177246e+00 1.465999986976385117e-02 0.000000000000000000e+00
 1.520349979400634766e+00 1.338999997824430466e-02 0.000000000000000000e+00
 1.561300039291381836e+00 1.212000008672475815e-02 0.000000000000000000e+00
 1.602249979972839355e+00 1.085000019520521164e-02 0.000000000000000000e+00
 1.643200039863586426e+00 9.580000303685665131e-03 0.000000000000000000e+00
 1.684149980545043945e+00 8.310000412166118622e-03 0.000000000000000000e+00
 1.725100040435791016e+00 7.040000054985284805e-03 0.000000000000000000e+00
 1.766049981117248535e+00 5.770000163465738297e-03 0.000000000000000000e+00
 1.807000041007995605e+00 4.499999806284904480e-03 0.000000000000000000e+00
 9.879999756813049316e-01 5.979999899864196777e-02 0.000000000000000000e+00
 1.028949975967407227e+00 5.725999921560287476e-02 0.000000000000000000e+00
 1.069900035858154297e+00 5.471999943256378174e-02 0.000000000000000000e+00
 1.110849976539611816e+00 5.217999964952468872e-02 0.000000000000000000e+00
 1.151800036430358887e+00 4.963999986648559570e-02 0.000000000000000000e+00
 1.192749977111816406e+00 4.710000008344650269e-02 0.000000000000000000e+00
 1.233700037002563477e+00 4.456000030040740967e-02 0.000000000000000000e+00
 1.274649977684020996e+00 4.202000051736831665e-02 0.000000000000000000e+00
 1.315600037574768066e+00 3.948000073432922363e-02 0.000000000000000000e+00
 1.356549978256225586e+00 3.694000095129013062e-02 0.000000000000000000e+00
 1.397500038146972656e+00 3.440000116825103760e-02 0.000000000000000000e+00
 1.438449978828430176e+00 3.186000138521194458e-02 0.000000000000000000e+00
 1.479400038719177246e+00 2.931999973952770233e-02 0.000000000000000000e+00
 1.520349979400634766e+00 2.677999995648860931e-02 0.000000000000000000e+00
 1.561300039291381836e+00 2.424000017344951630e-02 0.000000000000000000e+00
 1.602249979972839355e+00 2.170000039041042328e-02 0.000000000000000000e+00
 1.643200039863586426e+00 1.916000060737133026e-02 0.000000000000000000e+00
 1.684149980545043945e+00 1.662000082433223724e-02 0.000000000000000000e+00
 1.725100040435791016e+00 1.408000010997056961e-02 0.000000000000000000e+00
 1.766049981117248535e+00 1.154000032693147659e-02 0.000000000000000000e+00
 1.807000041007995605e+00 8.999999612569808960e-03 0.000000000000000000e+00
 9.879999756813049316e-01 8.969999849796295166e-02 0.000000000000000000e+00
 1.028949975967407227e+00 8.589000254869461060e-02 0.000000000000000000e+00
 1.069900035858154297e+00 8.207999914884567261e-02 0.000000000000000000e+00
 1.110849976539611816e+00 7.827000319957733154e-02 0.000000000000000000e+00
 1.151800036430358887e+00 7.445999979972839355e-02 0.000000000000000000e+00
 1.192749977111816406e+00 7.064999639987945557e-02 0.000000000000000000e+00
 1.233700037002563477e+00 6.684000045061111450e-02 0.000000000000000000e+00
 1.274649977684020996e+00 6.302999705076217651e-02 0.000000000000000000e+00
 1.315600037574768066e+00 5.922000110149383545e-02 0.000000000000000000e+00
 1.356549978256225586e+00 5.541000142693519592e-02 0.000000000000000000e+00
 1.397500038146972656e+00 5.160000175237655640e-02 0.000000000000000000e+00
 1.438449978828430176e+00 4.778999835252761841e-02 0.000000000000000000e+00
 1.479400038719177246e+00 4.397999867796897888e-02 0.000000000000000000e+00
 1.520349979400634766e+00 4.016999900341033936e-02 0.000000000000000000e+00
 1.561300039291381836e+00 3.635999932885169983e-02 0.000000000000000000e+00
 1.602249979972839355e+00 3.254999965429306030e-02 0.000000000000000000e+00
 1.643200039863586426e+00 2.873999997973442078e-02 0.000000000000000000e+00
 1.684149980545043945e+00 2.493000030517578125e-02 0.000000000000000000e+00
 1.725100040435791016e+00 2.112000063061714172e-02 0.000000000000000000e+00
 1.766049981117248535e+00 1.730999909341335297e-02 0.000000000000000000e+00
 1.807000041007995605e+00 1.350000035017728806e-02 0.000000000000000000e+00
 9.879999756813049316e-01 1.195999979972839355e-01 0.000000000000000000e+00
 1.028949975967407227e+00 1.145199984312057495e-01 0.000000000000000000e+00
 1.069900035858154297e+00 1.094399988651275635e-01 0.000000000000000000e+00
 1.110849976539611816e+00 1.043599992990493774e-01 0.000000000000000000e+00
 1.151800036430358887e+00 9.927999973297119141e-02 0.000000000000000000e+00
 1.192749977111816406e+00 9.420000016689300537e-02 0.000000000000000000e+00
 1.233700037002563477e+00 8.912000060081481934e-02 0.000000000000000000e+00
 1.274649977684020996e+00 8.404000103473663330e-02 0.000000000000000000e+00
 1.315600037574768066e+00 7.896000146865844727e-02 0.000000000000000000e+00
 1.356549978256225586e+00 7.388000190258026123e-02 0.000000000000000000e+00
 1.397500038146972656e+00 6.880000233650207520e-02 0.000000000000000000e+00
 1.438449978828430176e+00 6.372000277042388916e-02 0.000000000000000000e+00
 1.479400038719177246e+00 5.863999947905540466e-02 0.000000000000000000e+00
 1.520349979400634766e+00 5.355999991297721863e-02 0.000000000000000000e+00
 1.561300039291381836e+00 4.848000034689903259e-02 0.000000000000000000e+00
 1.602249979972839355e+00 4.340000078082084656e-02 0.000000000000000000e+00
 1.643200039863586426e+00 3.832000121474266052e-02 0.000000000000000000e+00
 1.684149980545043945e+00 3.324000164866447449e-02 0.000000000000000000e+00
 1.725100040435791016e+00 2.816000021994113922e-02 0.000000000000000000e+00
 1.766049981117248535e+00 2.308000065386295319e-02 0.000000000000000000e+00
 1.807000041007995605e+00 1.799999922513961792e-02 0.000000000000000000e+00
 9.879999756813049316e-01 1.494999974966049194e-01 0.000000000000000000e+00
 1.028949975967407227e+00 1.431500017642974854e-01 0.000000000000000000e+00
 1.069900035858154297e+00 1.368000060319900513e-01 0.000000000000000000e+00
 1.110849976539611816e+00 1.304499953985214233e-01 0.000000000000000000e+00
 1.151800036430358887e+00 1.240999996662139893e-01 0.000000000000000000e+00
 1.192749977111816406e+00 1.177499964833259583e-01 0.000000000000000000e+00
 1.233700037002563477e+00 1.114000007510185242e-01 0.000000000000000000e+00
 1.274649977684020996e+00 1.050499975681304932e-01 0.000000000000000000e+00
 1.315600037574768066e+00 9.870000183582305908e-02 0.000000000000000000e+00
 1.356549978256225586e+00 9.234999865293502808e-02 0.000000000000000000e+00
 1.397500038146972656e+00 8.600000292062759399e-02 0.000000000000000000e+00
 1.438449978828430176e+00 7.964999973773956299e-02 0.000000000000000000e+00
 1.479400038719177246e+00 7.329999655485153198e-02 0.000000000000000000e+00
 1.520349979400634766e+00 6.695000082254409790e-02 0.000000000000000000e+00
 1.561300039291381836e+00 6.060000136494636536e-02 0.000000000000000000e+00
 1.602249979972839355e+00 5.424999818205833435e-02 0.000000000000000000e+00
 1.643200039863586426e+00 4.789999872446060181e-02 0.000000000000000000e+00
 1.684149980545043945e+00 4.154999926686286926e-02 0.000000000000000000e+00
 1.725100040435791016e+00 3.519999980926513672e-02 0.000000000000000000e+00
 1.766049981117248535e+00 2.885000035166740417e-02 0.000000000000000000e+00
 1.807000041007995605e+00 2.250000089406967163e-02 0.000000000000000000e+00
 9.879999756813049316e-01 1.793999969959259033e-01 0.000000000000000000e+00
 1.028949975967407227e+00 1.717800050973892212e-01 0.000000000000000000e+00
[...]
<CellData>
 <DataArray Name="pos.x" type="Float32" NumberOfComponents="1" format="ascii">
 1.008326909277293959e+00
 1.049270191105552863e+00
 1.090212834424692190e+00
 1.131154743665297557e+00
 1.172095803183791363e+00
 1.213035871699755130e+00
 1.253974774774782919e+00
 1.294912294478521853e+00
 1.335848154933271914e+00
 1.376782001682083756e+00
 1.417713371566556857e+00
 1.458641647597253677e+00
 1.499565989304820102e+00
 1.540485221481770362e+00
 1.581397649107537662e+00
 1.622300734214380924e+00
 1.663190497484621888e+00
 1.704060325732907666e+00
 1.744898360655741332e+00
 1.785681012658226319e+00
 1.008326909277300398e+00
 1.049270191105558636e+00
 1.090212834424694188e+00
 1.131154743665294005e+00
 1.172095803183791807e+00
 1.213035871699751800e+00
 1.253974774774777812e+00
 1.294912294478529402e+00
 1.335848154933259258e+00
 1.376782001682078205e+00
 1.417713371566562408e+00
 1.458641647597253677e+00
 1.499565989304806557e+00
 1.540485221481781464e+00
 1.581397649107527004e+00
 1.622300734214397355e+00
 1.663190497484624331e+00
 1.704060325732910552e+00
 1.744898360655750214e+00
 1.785681012658227429e+00
 1.008326909277296402e+00
 1.049270191105559080e+00
 1.090212834424689081e+00
 1.131154743665289120e+00
 1.172095803183791585e+00
 1.213035871699769785e+00
 1.253974774774766265e+00
 1.294912294478529846e+00
 1.335848154933269250e+00
 1.376782001682077317e+00
 1.417713371566557967e+00
 1.458641647597244795e+00
 1.499565989304819658e+00
 1.540485221481772804e+00
 1.581397649107520120e+00
 1.622300734214402462e+00
 1.663190497484615671e+00
 1.704060325732884351e+00
 1.744898360655753100e+00
 1.785681012658212774e+00
 1.008326909277297512e+00
 1.049270191105553751e+00
 1.090212834424693744e+00
 1.131154743665292894e+00
 1.172095803183783813e+00
 1.213035871699768453e+00
 1.253974774774768486e+00
 1.294912294478530956e+00
 1.335848154933264809e+00
 1.376782001682079759e+00
 1.417713371566560410e+00
 1.458641647597249902e+00
 1.499565989304811664e+00
 1.540485221481777911e+00
 1.581397649107538772e+00
 1.622300734214388029e+00
 1.663190497484628105e+00
 1.704060325732877024e+00
 1.744898360655760206e+00
 1.785681012658244748e+00
 1.008326909277296624e+00
 1.049270191105555750e+00
 1.090212834424703292e+00
 1.131154743665294005e+00
 1.172095803183794027e+00
 1.213035871699759793e+00
 1.253974774774766487e+00
 1.294912294478524517e+00
 1.335848154933265475e+00
 1.376782001682082868e+00
 1.417713371566565517e+00
 1.458641647597243018e+00
 1.499565989304824098e+00
 1.540485221481772582e+00
 1.581397649107511683e+00
 1.622300734214394691e+00
 1.663190497484621888e+00
 1.704060325732895675e+00
 1.744898360655759095e+00
 1.785681012658210109e+00
 1.008326909277291739e+00
 1.049270191105561301e+00
 1.090212834424691524e+00
 1.131154743665296003e+00
 1.172095803183785145e+00
 1.213035871699753576e+00
 1.253974774774778478e+00
 1.294912294478527626e+00
 1.335848154933260368e+00
 1.376782001682078871e+00
 1.417713371566562408e+00
 1.458641647597251678e+00
 1.499565989304816549e+00
 1.540485221481773470e+00
 1.581397649107530556e+00
 1.622300734214391582e+00
 1.663190497484614339e+00
 1.704060325732877690e+00
 1.744898360655769531e+00
 1.785681012658236089e+00
 1.008326909277293071e+00
 1.049270191105560857e+00
 1.090212834424692190e+00
 1.131154743665288676e+00
 1.172095803183797136e+00
 1.213035871699762236e+00
 1.253974774774773593e+00
 1.294912294478531845e+00
 1.335848154933254373e+00
 1.376782001682088641e+00
 1.417713371566555747e+00
 1.458641647597253010e+00
 1.499565989304822766e+00
 1.540485221481751488e+00
 1.581397649107540104e+00
 1.622300734214375595e+00
 1.663190497484636543e+00
 1.704060325732894343e+00
 1.744898360655744884e+00
 1.785681012658251188e+00
 1.008326909277295513e+00
 1.049270191105554861e+00
 1.090212834424691302e+00
 1.131154743665293338e+00
 1.172095803183790252e+00
 1.213035871699762902e+00
 1.253974774774767820e+00
 1.294912294478524517e+00
 1.335848154933267695e+00
 1.376782001682083978e+00
 1.417713371566562408e+00
 1.458641647597237911e+00
 1.499565989304814551e+00
 1.540485221481775913e+00
 1.581397649107532333e+00
 1.622300734214392470e+00
 1.663190497484620556e+00
 1.704060325732909664e+00
 1.744898360655718017e+00
 1.785681012658210109e+00
 1.008326909277292405e+00
 1.049270191105548866e+00
 1.090212834424699073e+00
 1.131154743665288231e+00
 1.172095803183787810e+00
 1.213035871699763346e+00
 1.253974774774768930e+00
 1.294912294478526293e+00
 1.335848154933270582e+00
 1.376782001682082424e+00
 1.417713371566563962e+00
 1.458641647597261448e+00
 1.499565989304809221e+00
 1.540485221481757039e+00
 1.581397649107520120e+00
 1.622300734214384033e+00
 1.663190497484631658e+00
 1.704060325732904557e+00
 1.744898360655706693e+00
 1.785681012658250522e+00
 1.008326909277297068e+00
 1.049270191105557748e+00
 1.090212834424689303e+00
 1.131154743665290896e+00
 1.172095803183793583e+00
 1.213035871699766899e+00
 1.253974774774769818e+00
 1.294912294478527626e+00
 1.335848154933261700e+00
 1.376782001682083978e+00
 1.417713371566567515e+00
 1.458641647597236801e+00
 1.499565989304814995e+00
 1.540485221481751488e+00
 1.581397649107548320e+00
 1.622300734214362272e+00
 1.663190497484647201e+00
 1.704060325732901449e+00
 1.744898360655781522e+00
 1.785681012658221212e+00
 </DataArray>
 <DataArray Name="pos.y" type="Float32" NumberOfComponents="1" format="ascii">
 1.463479640070625143e-02
 1.399990057748401982e-02
 1.336501465544121491e-02
 1.273014011654556230e-02
 1.209527875404867170e-02
 1.146043275874604472e-02
 1.082560483560490033e-02
 1.019079836400807806e-02
 9.556017621914049756e-03
 8.921268105784517857e-03
 8.286556997685875364e-03
 7.651893865097553378e-03
 7.017291740938776633e-03
 6.382768848817482049e-03
 5.748351472935740551e-03
 5.114078968836646526e-03
 4.480013042668147365e-03
 3.846256243213917042e-03
 3.212992453812135892e-03
 2.580587471600127945e-03
 4.390438920211882368e-02
 4.199970173245224508e-02
 4.009504396632369155e-02
 3.819042034963664872e-02
 3.628583626214604979e-02
 3.438129827623806478e-02
 3.247681450681467324e-02
 3.057239509202456726e-02
 2.866805286574180753e-02
 2.676380431735340959e-02
 2.485967099305770589e-02
 2.295568159529266447e-02
 2.105187522281629434e-02
 1.914830654645243921e-02
 1.724505441880702650e-02
 1.534223690651009830e-02
 1.344003912800441174e-02
 1.153876872964178062e-02
 9.638977361436408542e-03
 7.741762414800370390e-03
 7.317398200353124327e-02
 6.999950288742047555e-02
 6.682507327720590973e-02
 6.365070058272741249e-02
 6.047639377024333074e-02
 5.730216379373061220e-02
 5.412802417802391880e-02
 5.095399182004092808e-02
 4.778008810957016378e-02
 4.460634052892224755e-02
 4.143278498842955376e-02
 3.825946932548749541e-02
 3.508645870469410261e-02
 3.191384424408727494e-02
 2.874175736467838790e-02
 2.557039484418358391e-02
 2.240006521334064749e-02
 1.923128121606939439e-02
 1.606496226906066818e-02
 1.290293735800061500e-02
 1.024435748049438016e-01
 9.799930404238811621e-02
 9.355510258808871771e-02
 8.911098081581853014e-02
 8.466695127834049373e-02
 8.022302931122306247e-02
 7.577923384923399008e-02
 7.133558854805720217e-02
 6.689212335339825288e-02
 6.244887674049131449e-02
 5.800589898380131837e-02
 5.356325705568274614e-02
 4.912104218657155352e-02
 4.467938194172235006e-02
 4.023846031055004074e-02
 3.579855278185668094e-02
 3.136009129867710354e-02
 2.692379370249688153e-02
 2.249094717668521926e-02
 1.806411230120106431e-02
 1.317131676063564016e-01
 1.259991051973565479e-01
 1.202851318989718171e-01
 1.145712610489095645e-01
 1.088575087864381841e-01
 1.031438948287149576e-01
 9.743044352044318013e-02
 9.171718527607357341e-02
 8.600415859722573830e-02
 8.029141295206021489e-02
 7.457901297917332584e-02
 6.886704478587733769e-02
 6.315562566844941383e-02
 5.744491963935700191e-02
 5.173516325642099623e-02
 4.602671071953028104e-02
 4.032011738401317796e-02
 3.461630618892509031e-02
 2.891693208430942338e-02
 2.322528724440112505e-02
 1.609827604077679331e-01
 1.539989063523252155e-01
 1.470151612098527794e-01
 1.400315412820008765e-01
 1.330480662945350001e-01
 1.260647603462062005e-01
 1.190816531916537024e-01
 1.120987820040896948e-01
 1.051161938410537094e-01
 9.813394916362912224e-02
 9.115212697454522228e-02
 8.417083251607293537e-02
 7.719020915032655250e-02
 7.021045733699225744e-02
 6.323186620229270805e-02
 5.625486865720385338e-02
 4.928014346934939810e-02
 4.230881867535256358e-02
 3.534291699193393976e-02
 2.838646218760158824e-02
 1.902523532091807412e-01
 1.819987075072937444e-01
 1.737451905207353098e-01
 1.654918215150913419e-01
 1.572386238026333705e-01
 1.489856258636993447e-01
 1.407328628628633227e-01
 1.324803787321066906e-01
 1.242282290848813892e-01
 1.159764853751987235e-01
 1.077252409699164942e-01
 9.947462024626776977e-02
 9.122479263220496792e-02
 8.297599503462596560e-02
 7.472856914816441987e-02
 6.648302659487678734e-02
 5.824016955468645784e-02
 5.000133116178084175e-02
 4.176890189955756449e-02
 3.354763713080203408e-02
 2.195219460105934661e-01
 2.099985086622605801e-01
 2.004752198316182565e-01
 1.909521017481828065e-01
 1.814291813107291873e-01
 1.719064913811920725e-01
 1.623840725340719993e-01
 1.528619754601226177e-01
 1.433402643287102485e-01
 1.338190215867677280e-01
 1.242983549652886960e-01
 1.147784079764624654e-01
 1.052593761140822315e-01
 9.574153273226221339e-02
 8.622527209403585413e-02
 7.671118453255028335e-02
 6.720019564002227552e-02
 5.769384364820881461e-02
 4.819488680718175128e-02
 3.870881207400151541e-02
 2.487915388120054971e-01
 2.379983098172283040e-01
 2.272052491425018417e-01
 2.164123819812731608e-01
 2.056197388188268915e-01
 1.948273568986834681e-01
 1.840352822052822024e-01
 1.732435721881384616e-01
 1.624522995725380670e-01
 1.516615577983365659e-01
 1.408714689606602455e-01
 1.300821957066589374e-01
 1.192939595959586346e-01
 1.085070704298961436e-01
 9.772197503990631695e-02
 8.693934247022304385e-02
 7.616022172535906465e-02
 6.538635613463666951e-02
 5.462087171480545927e-02
 4.386998701720273841e-02
 2.780611316134184441e-01
 2.659981109721971659e-01
 2.539352784533820961e-01
 2.418726622143645977e-01
 2.298102963269253451e-01
 2.177482224161763347e-01
 2.056864918764918504e-01
 1.936251689161544998e-01
 1.815643348163660242e-01
 1.695040940099055982e-01
 1.574445829560329191e-01
 1.453859834368515791e-01
 1.333285430778371750e-01
 1.212726081275296991e-01
 1.092186779857797357e-01
 9.716750040789555454e-02
 8.512024781069535417e-02
 7.307886862106424686e-02
 6.104685662243162364e-02
 4.903116196040224056e-02
 </DataArray>
 <DataArray Name="pos.z" type="Float32" NumberOfComponents="1" format="ascii">
 0.000000000000000000e+00
 0.000000000000000000e+00
 0.000000000000000000e+00
 0.000000000000000000e+00
 0.000000000000000000e+00
 0.000000000000000000e+00
 0.000000000000000000e+00
 0.000000000000000000e+00
 0.000000000000000000e+00
 0.000000000000000000e+00
 0.000000000000000000e+00
 0.000000000000000000e+00
 0.000000000000000000e+00
 0.000000000000000000e+00
 0.000000000000000000e+00
 0.000000000000000000e+00
 0.000000000000000000e+00
 0.000000000000000000e+00
 0.000000000000000000e+00
 0.000000000000000000e+00
 0.000000000000000000e+00
 0.000000000000000000e+00
 0.000000000000000000e+00
 0.000000000000000000e+00
 0.000000000000000000e+00
 0.000000000000000000e+00
 0.000000000000000000e+00
 0.000000000000000000e+00
 0.000000000000000000e+00
 0.000000000000000000e+00
 0.000000000000000000e+00
 0.000000000000000000e+00
 0.000000000000000000e+00
 0.000000000000000000e+00
 0.000000000000000000e+00
 0.000000000000000000e+00
 0.000000000000000000e+00
 0.000000000000000000e+00
 0.000000000000000000e+00
 0.000000000000000000e+00
 0.000000000000000000e+00
 0.000000000000000000e+00
 0.000000000000000000e+00
 0.000000000000000000e+00
 0.000000000000000000e+00
 0.000000000000000000e+00
 0.000000000000000000e+00
 0.000000000000000000e+00
 0.000000000000000000e+00
 0.000000000000000000e+00
 0.000000000000000000e+00
 0.000000000000000000e+00
 0.000000000000000000e+00
 0.000000000000000000e+00
 0.000000000000000000e+00
 0.000000000000000000e+00
 0.000000000000000000e+00
 0.000000000000000000e+00
 0.000000000000000000e+00
 0.000000000000000000e+00
 0.000000000000000000e+00
 0.000000000000000000e+00
 0.000000000000000000e+00
 0.000000000000000000e+00
 0.000000000000000000e+00
 0.000000000000000000e+00
 0.000000000000000000e+00
 0.000000000000000000e+00
 0.000000000000000000e+00
 0.000000000000000000e+00
 0.000000000000000000e+00
 0.000000000000000000e+00
 0.000000000000000000e+00
 0.000000000000000000e+00
 0.000000000000000000e+00
 0.000000000000000000e+00
 0.000000000000000000e+00
 0.000000000000000000e+00
 0.000000000000000000e+00
 0.000000000000000000e+00
 0.000000000000000000e+00
 0.000000000000000000e+00
 0.000000000000000000e+00
 0.000000000000000000e+00
 0.000000000000000000e+00
 0.000000000000000000e+00
 0.000000000000000000e+00
 0.000000000000000000e+00
 0.000000000000000000e+00
 0.000000000000000000e+00
 0.000000000000000000e+00
 0.000000000000000000e+00
 0.000000000000000000e+00
 0.000000000000000000e+00
 0.000000000000000000e+00
 0.000000000000000000e+00
 0.000000000000000000e+00
 0.000000000000000000e+00
 0.000000000000000000e+00
 0.000000000000000000e+00
 0.000000000000000000e+00
 0.000000000000000000e+00
 0.000000000000000000e+00
 0.000000000000000000e+00
 0.000000000000000000e+00
 0.000000000000000000e+00
 0.000000000000000000e+00
 0.000000000000000000e+00
 0.000000000000000000e+00
 0.000000000000000000e+00
 0.000000000000000000e+00
 0.000000000000000000e+00
 0.000000000000000000e+00
 0.000000000000000000e+00
 0.000000000000000000e+00
 0.000000000000000000e+00
 0.000000000000000000e+00
 0.000000000000000000e+00
 0.000000000000000000e+00
 0.000000000000000000e+00
 0.000000000000000000e+00
 0.000000000000000000e+00
 0.000000000000000000e+00
 0.000000000000000000e+00
 0.000000000000000000e+00
 0.000000000000000000e+00
 0.000000000000000000e+00
 0.000000000000000000e+00
 0.000000000000000000e+00
 0.000000000000000000e+00
 0.000000000000000000e+00
 0.000000000000000000e+00
 0.000000000000000000e+00
 0.000000000000000000e+00
 0.000000000000000000e+00
 0.000000000000000000e+00
 0.000000000000000000e+00
 0.000000000000000000e+00
 0.000000000000000000e+00
 0.000000000000000000e+00
 0.000000000000000000e+00
 0.000000000000000000e+00
 0.000000000000000000e+00
 0.000000000000000000e+00
 0.000000000000000000e+00
 0.000000000000000000e+00
 0.000000000000000000e+00
 0.000000000000000000e+00
 0.000000000000000000e+00
 0.000000000000000000e+00
 0.000000000000000000e+00
 0.000000000000000000e+00
 0.000000000000000000e+00
 0.000000000000000000e+00
 0.000000000000000000e+00
 0.000000000000000000e+00
 0.000000000000000000e+00
 0.000000000000000000e+00
 0.000000000000000000e+00
 0.000000000000000000e+00
 0.000000000000000000e+00
 0.000000000000000000e+00
 0.000000000000000000e+00
 0.000000000000000000e+00
 0.000000000000000000e+00
 0.000000000000000000e+00
 0.000000000000000000e+00
 0.000000000000000000e+00
 0.000000000000000000e+00
 0.000000000000000000e+00
 0.000000000000000000e+00
 0.000000000000000000e+00
 0.000000000000000000e+00
 0.000000000000000000e+00
 0.000000000000000000e+00
 0.000000000000000000e+00
 0.000000000000000000e+00
 0.000000000000000000e+00
 0.000000000000000000e+00
 0.000000000000000000e+00
 0.000000000000000000e+00
 0.000000000000000000e+00
 0.000000000000000000e+00
 0.000000000000000000e+00
 0.000000000000000000e+00
 0.000000000000000000e+00
 0.000000000000000000e+00
 0.000000000000000000e+00
 0.000000000000000000e+00
 0.000000000000000000e+00
 0.000000000000000000e+00
 0.000000000000000000e+00
 0.000000000000000000e+00
 0.000000000000000000e+00
 0.000000000000000000e+00
 0.000000000000000000e+00
 0.000000000000000000e+00
 0.000000000000000000e+00
 0.000000000000000000e+00
 0.000000000000000000e+00
 </DataArray>
 <DataArray Name="volume" type="Float32" NumberOfComponents="1" format="ascii">
 1.198401749999998068e-03
 1.146395250000001309e-03
 1.094388750000001298e-03
 1.042382249999987626e-03
 9.903757500000012759e-04
 9.383692500000116732e-04
 8.863627499999909539e-04
 8.343562500000012427e-04
 7.823497499999977622e-04
 7.303432500000013291e-04
 6.783367500000012096e-04
 6.263302499999977291e-04
 5.743237499999978265e-04
 5.223172500000046459e-04
 4.703107499999976959e-04
 4.183042500000011543e-04
 3.662977500000011433e-04
 3.142912499999959280e-04
 2.622847499999994406e-04
 2.102782500000011101e-04
 1.198401749999994381e-03
 1.146395249999997623e-03
 1.094388750000000864e-03
 1.042382249999989144e-03
 9.903757500000019264e-04
 9.383692500000112395e-04
 8.863627499999911707e-04
 8.343562499999915933e-04
 7.823497500000067611e-04
 7.303432500000054490e-04
 6.783367499999986075e-04
 6.263302500000000059e-04
 5.743237500000033559e-04
 5.223172500000034532e-04
 4.703107500000059901e-04
 4.183042499999951370e-04
 3.662977500000007096e-04
 3.142912499999920249e-04
 2.622847500000002538e-04
 2.102782500000007035e-04
 1.198401749999998284e-03
 1.146395249999997840e-03
 1.094388750000008887e-03
 1.042382249999992613e-03
 9.903757500000090822e-04
 9.383692499999970365e-04
 8.863627500000016875e-04
 8.343562500000026522e-04
 7.823497499999991717e-04
 7.303432500000051238e-04
 6.783367500000000170e-04
 6.263302500000051017e-04
 5.743237499999960917e-04
 5.223172500000010680e-04
 4.703107500000055564e-04
 4.183042499999898786e-04
 3.662977499999994085e-04
 3.142912500000003191e-04
 2.622847500000019885e-04
 2.102782500000011101e-04
 1.198401749999994381e-03
 1.146395250000001309e-03
 1.094388750000004767e-03
 1.042382249999986542e-03
 9.903757500000090822e-04
 9.383692499999926996e-04
 8.863627499999934475e-04
 8.343562500000047122e-04
 7.823497499999961359e-04
 7.303432500000038227e-04
 6.783367499999952465e-04
 6.263302499999995722e-04
 5.743237499999994528e-04
 5.223172500000029111e-04
 4.703107499999951480e-04
 4.183042499999986064e-04
 3.662977499999976738e-04
 3.142912500000063906e-04
 2.622847499999958628e-04
 2.102782499999976407e-04
 1.198401749999991779e-03
 1.146395250000001309e-03
 1.094388749999996094e-03
 1.042382249999989144e-03
 9.903757500000030106e-04
 9.383692499999997470e-04
 8.863627499999986517e-04
 8.343562500000055795e-04
 7.823497500000020990e-04
 7.303432500000030638e-04
 6.783367499999934033e-04
 6.263302500000047764e-04
 5.743237499999985854e-04
 5.223172500000046459e-04
 4.703107499999960154e-04
 4.183042500000046238e-04
 3.662977500000011433e-04
 3.142912500000028669e-04
 2.622847499999994406e-04
 2.102782500000011101e-04
 1.198401750000002404e-03
 1.146395250000006513e-03
 1.094388750000004767e-03
 1.042382249999990228e-03
 9.903757500000090822e-04
 9.383692500000074448e-04
 8.863627499999943149e-04
 8.343562500000082901e-04
 7.823497500000012317e-04
 7.303432499999994859e-04
 6.783367499999978486e-04
 6.263302499999995722e-04
 5.743237500000030306e-04
 5.223172500000029111e-04
 4.703107499999925460e-04
 4.183042500000011543e-04
 3.662977499999959933e-04
 3.142912499999993975e-04
 2.622847500000011212e-04
 2.102782499999994025e-04
 1.198401749999992646e-03
 1.146395249999994370e-03
 1.094388749999999563e-03
 1.042382249999992613e-03
 9.903757500000012759e-04
 9.383692500000012648e-04
 8.863627499999926886e-04
 8.343562500000047122e-04
 7.823497500000048096e-04
 7.303432499999961249e-04
 6.783367499999995833e-04
 6.263302500000011985e-04
 5.743237499999960917e-04
 5.223172500000082237e-04
 4.703107499999890223e-04
 4.183042500000046238e-04
 3.662977499999994085e-04
 3.142912500000011322e-04
 2.622847500000029101e-04
 2.102782499999924636e-04
 1.198401749999996333e-03
 1.146395250000004779e-03
 1.094388750000006502e-03
 1.042382249999989144e-03
 9.903757500000082148e-04
 9.383692499999961691e-04
 8.863627499999977843e-04
 8.343562499999977733e-04
 7.823497499999996054e-04
 7.303432499999961249e-04
 6.783367499999978486e-04
 6.263302500000030417e-04
 5.743237500000030306e-04
 5.223172500000010680e-04
 4.703107499999890223e-04