<VTKFile type="UnstructuredGrid" byte_order="BigEndian">
<UnstructuredGrid><Piece NumberOfPoints="231" NumberOfCells="200">
<Points>
 <DataArray type="Float32" NumberOfComponents="3" format="ascii">
 0.000000000000000000e+00 0.000000000000000000e+00 0.000000000000000000e+00
 4.940000176429748535e-02 0.000000000000000000e+00 0.000000000000000000e+00
 9.880000352859497070e-02 0.000000000000000000e+00 0.000000000000000000e+00
 1.482000052928924561e-01 0.000000000000000000e+00 0.000000000000000000e+00
 1.976000070571899414e-01 0.000000000000000000e+00 0.000000000000000000e+00
 2.469999939203262329e-01 0.000000000000000000e+00 0.000000000000000000e+00
 2.964000105857849121e-01 0.000000000000000000e+00 0.000000000000000000e+00
 3.458000123500823975e-01 0.000000000000000000e+00 0.000000000000000000e+00
 3.952000141143798828e-01 0.000000000000000000e+00 0.000000000000000000e+00
 4.445999860763549805e-01 0.000000000000000000e+00 0.000000000000000000e+00
 4.939999878406524658e-01 0.000000000000000000e+00 0.000000000000000000e+00
 5.433999896049499512e-01 0.000000000000000000e+00 0.000000000000000000e+00
 5.928000211715698242e-01 0.000000000000000000e+00 0.000000000000000000e+00
 6.421999931335449219e-01 0.000000000000000000e+00 0.000000000000000000e+00
 6.916000247001647949e-01 0.000000000000000000e+00 0.000000000000000000e+00
 7.409999966621398926e-01 0.000000000000000000e+00 0.000000000000000000e+00
 7.904000282287597656e-01 0.000000000000000000e+00 0.000000000000000000e+00
 8.398000001907348633e-01 0.000000000000000000e+00 0.000000000000000000e+00
 8.891999721527099609e-01 0.000000000000000000e+00 0.000000000000000000e+00
 9.386000037193298340e-01 0.000000000000000000e+00 0.000000000000000000e+00
 9.879999756813049316e-01 0.000000000000000000e+00 0.000000000000000000e+00
 0.000000000000000000e+00 4.540000110864639282e-02 0.000000000000000000e+00
 4.940000176429748535e-02 4.462499916553497314e-02 0.000000000000000000e+00
 9.880000352859497070e-02 4.385000094771385193e-02 0.000000000000000000e+00
 1.482000052928924561e-01 4.307499900460243225e-02 0.000000000000000000e+00
 1.976000070571899414e-01 4.230000078678131104e-02 0.000000000000000000e+00
 2.469999939203262329e-01 4.152499884366989136e-02 0.000000000000000000e+00
 2.964000105857849121e-01 4.075000062584877014e-02 0.000000000000000000e+00
 3.458000123500823975e-01 3.997499868273735046e-02 0.000000000000000000e+00
 3.952000141143798828e-01 3.920000046491622925e-02 0.000000000000000000e+00
 4.445999860763549805e-01 3.842499852180480957e-02 0.000000000000000000e+00
 4.939999878406524658e-01 3.765000030398368835e-02 0.000000000000000000e+00
 5.433999896049499512e-01 3.687499836087226868e-02 0.000000000000000000e+00
 5.928000211715698242e-01 3.610000014305114746e-02 0.000000000000000000e+00
 6.421999931335449219e-01 3.532499819993972778e-02 0.000000000000000000e+00
 6.916000247001647949e-01 3.454999998211860657e-02 0.000000000000000000e+00
 7.409999966621398926e-01 3.377500176429748535e-02 0.000000000000000000e+00
 7.904000282287597656e-01 3.299999982118606567e-02 0.000000000000000000e+00
 8.398000001907348633e-01 3.222500160336494446e-02 0.000000000000000000e+00
 8.891999721527099609e-01 3.144999966025352478e-02 0.000000000000000000e+00
 9.386000037193298340e-01 3.067499957978725433e-02 0.000000000000000000e+00
 9.879999756813049316e-01 2.989999949932098389e-02 0.000000000000000000e+00
 0.000000000000000000e+00 9.080000221729278564e-02 0.000000000000000000e+00
 4.940000176429748535e-02 8.924999833106994629e-02 0.000000000000000000e+00
 9.880000352859497070e-02 8.770000189542770386e-02 0.000000000000000000e+00
 1.482000052928924561e-01 8.614999800920486450e-02 0.000000000000000000e+00
 1.976000070571899414e-01 8.460000157356262207e-02 0.000000000000000000e+00
 2.469999939203262329e-01 8.304999768733978271e-02 0.000000000000000000e+00
 2.964000105857849121e-01 8.150000125169754028e-02 0.000000000000000000e+00
 3.458000123500823975e-01 7.994999736547470093e-02 0.000000000000000000e+00
 3.952000141143798828e-01 7.840000092983245850e-02 0.000000000000000000e+00
 4.445999860763549805e-01 7.684999704360961914e-02 0.000000000000000000e+00
 4.939999878406524658e-01 7.530000060796737671e-02 0.000000000000000000e+00
 5.433999896049499512e-01 7.374999672174453735e-02 0.000000000000000000e+00
 5.928000211715698242e-01 7.220000028610229492e-02 0.000000000000000000e+00
 6.421999931335449219e-01 7.064999639987945557e-02 0.000000000000000000e+00
 6.916000247001647949e-01 6.909999996423721313e-02 0.000000000000000000e+00
 7.409999966621398926e-01 6.755000352859497070e-02 0.000000000000000000e+00
 7.904000282287597656e-01 6.599999964237213135e-02 0.000000000000000000e+00
 8.398000001907348633e-01 6.445000320672988892e-02 0.000000000000000000e+00
 8.891999721527099609e-01 6.289999932050704956e-02 0.000000000000000000e+00
 9.386000037193298340e-01 6.134999915957450867e-02 0.000000000000000000e+00
 9.879999756813049316e-01 5.979999899864196777e-02 0.000000000000000000e+00
 0.000000000000000000e+00 1.361999958753585815e-01 0.000000000000000000e+00
 4.940000176429748535e-02 1.338749974966049194e-01 0.000000000000000000e+00
 9.880000352859497070e-02 1.315499991178512573e-01 0.000000000000000000e+00
 1.482000052928924561e-01 1.292250007390975952e-01 0.000000000000000000e+00
 1.976000070571899414e-01 1.269000023603439331e-01 0.000000000000000000e+00
 2.469999939203262329e-01 1.245749965310096741e-01 0.000000000000000000e+00
 2.964000105857849121e-01 1.222499981522560120e-01 0.000000000000000000e+00
 3.458000123500823975e-01 1.199249997735023499e-01 0.000000000000000000e+00
 3.952000141143798828e-01 1.176000013947486877e-01 0.000000000000000000e+00
 4.445999860763549805e-01 1.152750030159950256e-01 0.000000000000000000e+00
 4.939999878406524658e-01 1.129499971866607666e-01 0.000000000000000000e+00
 5.433999896049499512e-01 1.106249988079071045e-01 0.000000000000000000e+00
 5.928000211715698242e-01 1.083000004291534424e-01 0.000000000000000000e+00
 6.421999931335449219e-01 1.059750020503997803e-01 0.000000000000000000e+00
 6.916000247001647949e-01 1.036500036716461182e-01 0.000000000000000000e+00
 7.409999966621398926e-01 1.013249978423118591e-01 0.000000000000000000e+00
 7.904000282287597656e-01 9.899999946355819702e-02 0.000000000000000000e+00
 8.398000001907348633e-01 9.667500108480453491e-02 0.000000000000000000e+00
 8.891999721527099609e-01 9.435000270605087280e-02 0.000000000000000000e+00
 9.386000037193298340e-01 9.202499687671661377e-02 0.000000000000000000e+00
 9.879999756813049316e-01 8.969999849796295166e-02 0.000000000000000000e+00
 0.000000000000000000e+00 1.816000044345855713e-01 0.000000000000000000e+00
 4.940000176429748535e-02 1.784999966621398926e-01 0.000000000000000000e+00
 9.880000352859497070e-02 1.754000037908554077e-01 0.000000000000000000e+00
 1.482000052928924561e-01 1.722999960184097290e-01 0.000000000000000000e+00
 1.976000070571899414e-01 1.692000031471252441e-01 0.000000000000000000e+00
 2.469999939203262329e-01 1.660999953746795654e-01 0.000000000000000000e+00
 2.964000105857849121e-01 1.630000025033950806e-01 0.000000000000000000e+00
 3.458000123500823975e-01 1.598999947309494019e-01 0.000000000000000000e+00
 3.952000141143798828e-01 1.568000018596649170e-01 0.000000000000000000e+00
 4.445999860763549805e-01 1.536999940872192383e-01 0.000000000000000000e+00
 4.939999878406524658e-01 1.506000012159347534e-01 0.000000000000000000e+00
 5.433999896049499512e-01 1.474999934434890747e-01 0.000000000000000000e+00
 5.928000211715698242e-01 1.444000005722045898e-01 0.000000000000000000e+00
 6.421999931335449219e-01 1.412999927997589111e-01 0.000000000000000000e+00
 6.916000247001647949e-01 1.381999999284744263e-01 0.000000000000000000e+00
 7.409999966621398926e-01 1.351000070571899414e-01 0.000000000000000000e+00
 7.904000282287597656e-01 1.319999992847442627e-01 0.000000000000000000e+00
 8.398000001907348633e-01 1.289000064134597778e-01 0.000000000000000000e+00
 8.891999721527099609e-01 1.257999986410140991e-01 0.000000000000000000e+00
 9.386000037193298340e-01 1.226999983191490173e-01 0.000000000000000000e+00
 9.879999756813049316e-01 1.195999979972839355e-01 0.000000000000000000e+00
 0.000000000000000000e+00 2.269999980926513672e-01 0.000000000000000000e+00
 4.940000176429748535e-02 2.231249958276748657e-01 0.000000000000000000e+00
 9.880000352859497070e-02 2.192499935626983643e-01 0.000000000000000000e+00
 1.482000052928924561e-01 2.153750061988830566e-01 0.000000000000000000e+00
 1.976000070571899414e-01 2.115000039339065552e-01 0.000000000000000000e+00
 2.469999939203262329e-01 2.076250016689300537e-01 0.000000000000000000e+00
 2.964000105857849121e-01 2.037499994039535522e-01 0.000000000000000000e+00
 3.458000123500823975e-01 1.998749971389770508e-01 0.000000000000000000e+00
 3.952000141143798828e-01 1.959999948740005493e-01 0.000000000000000000e+00
 4.445999860763549805e-01 1.921249926090240479e-01 0.000000000000000000e+00
 4.939999878406524658e-01 1.882500052452087402e-01 0.000000000000000000e+00
 5.433999896049499512e-01 1.843750029802322388e-01 0.000000000000000000e+00
 5.928000211715698242e-01 1.805000007152557373e-01 0.000000000000000000e+00
 6.421999931335449219e-01 1.766249984502792358e-01 0.000000000000000000e+00
 6.916000247001647949e-01 1.727499961853027344e-01 0.000000000000000000e+00
 7.409999966621398926e-01 1.688749939203262329e-01 0.000000000000000000e+00
 7.904000282287597656e-01 1.650000065565109253e-01 0.000000000000000000e+00
 8.398000001907348633e-01 1.611250042915344238e-01 0.000000000000000000e+00
 8.891999721527099609e-01 1.572500020265579224e-01 0.000000000000000000e+00
 9.386000037193298340e-01 1.533749997615814209e-01 0.000000000000000000e+00
 9.879999756813049316e-01 1.494999974966049194e-01 0.000000000000000000e+00
 0.000000000000000000e+00 2.723999917507171631e-01 0.000000000000000000e+00
 4.940000176429748535e-02 2.677499949932098389e-01 0.000000000000000000e+00
[...]
<CellData>
 <DataArray Name="pos.x" type="Float32" NumberOfComponents="1" format="ascii">
 2.462912154031287118e-02
 7.402787981539042661e-02
 1.234265938069216695e-01
 1.728252611029770514e-01
 2.222238791132320201e-01
 2.716224450521622091e-01
 3.210209559203059393e-01
 3.704194084833176692e-01
 4.198177992485239152e-01
 4.692161244386027774e-01
 5.186143799619816752e-01
 5.680125613794687611e-01
 6.174106638665269875e-01
 6.668086821705436762e-01
 7.162066105622635348e-01
 7.656044427804830077e-01
 8.150021719688258504e-01
 8.643997906033231704e-01
 9.137972904091222759e-01
 9.631946622644106393e-01
 2.462912154031287118e-02
 7.402787981539045437e-02
 1.234265938069216556e-01
 1.728252611029771624e-01
 2.222238791132319369e-01
 2.716224450521622646e-01
 3.210209559203062724e-01
 3.704194084833171696e-01
 4.198177992485239152e-01
 4.692161244386023333e-01
 5.186143799619811201e-01
 5.680125613794683170e-01
 6.174106638665272095e-01
 6.668086821705416778e-01
 7.162066105622638679e-01
 7.656044427804827857e-01
 8.150021719688222976e-01
 8.643997906033246137e-01
 9.137972904091242743e-01
 9.631946622644099731e-01
 2.462912154031288506e-02
 7.402787981539041273e-02
 1.234265938069216695e-01
 1.728252611029771624e-01
 2.222238791132318814e-01
 2.716224450521624312e-01
 3.210209559203056617e-01
 3.704194084833179468e-01
 4.198177992485234156e-01
 4.692161244386027774e-01
 5.186143799619821193e-01
 5.680125613794680950e-01
 6.174106638665265434e-01
 6.668086821705418998e-01
 7.162066105622654222e-01
 7.656044427804827857e-01
 8.150021719688264055e-01
 8.643997906033229484e-01
 9.137972904091218318e-01
 9.631946622644105283e-01
 2.462912154031286424e-02
 7.402787981539044049e-02
 1.234265938069217250e-01
 1.728252611029769958e-01
 2.222238791132319369e-01
 2.716224450521626532e-01
 3.210209559203053287e-01
 3.704194084833173917e-01
 4.198177992485232490e-01
 4.692161244386027774e-01
 5.186143799619803429e-01
 5.680125613794684281e-01
 6.174106638665258773e-01
 6.668086821705417888e-01
 7.162066105622633128e-01
 7.656044427804813424e-01
 8.150021719688244071e-01
 8.643997906033249468e-01
 9.137972904091195003e-01
 9.631946622644140810e-01
 2.462912154031287812e-02
 7.402787981539042661e-02
 1.234265938069216695e-01
 1.728252611029769681e-01
 2.222238791132321034e-01
 2.716224450521624312e-01
 3.210209559203055507e-01
 3.704194084833177802e-01
 4.198177992485233045e-01
 4.692161244386031105e-01
 5.186143799619822303e-01
 5.680125613794673178e-01
 6.174106638665279867e-01
 6.668086821705417888e-01
 7.162066105622642009e-01
 7.656044427804808983e-01
 8.150021719688252952e-01
 8.643997906033237255e-01
 9.137972904091227200e-01
 9.631946622644100842e-01
 2.462912154031288506e-02
 7.402787981539041273e-02
 1.234265938069217250e-01
 1.728252611029771069e-01
 2.222238791132318814e-01
 2.716224450521624312e-01
 3.210209559203058283e-01
 3.704194084833177802e-01
 4.198177992485232490e-01
 4.692161244386026109e-01
 5.186143799619812311e-01
 5.680125613794684281e-01
 6.174106638665270985e-01
 6.668086821705432321e-01
 7.162066105622634238e-01
 7.656044427804817865e-01
 8.150021719688251842e-01
 8.643997906033249468e-01
 9.137972904091212767e-01
 9.631946622644126377e-01
 2.462912154031286771e-02
 7.402787981539041273e-02
 1.234265938069216556e-01
 1.728252611029771069e-01
 2.222238791132318814e-01
 2.716224450521623757e-01
 3.210209559203057172e-01
 3.704194084833177802e-01
 4.198177992485243593e-01
 4.692161244386022223e-01
 5.186143799619814532e-01
 5.680125613794680950e-01
 6.174106638665267655e-01
 6.668086821705425660e-01
 7.162066105622622025e-01
 7.656044427804822305e-01
 8.150021719688247401e-01
 8.643997906033233924e-01
 9.137972904091200554e-01
 9.631946622644123046e-01
 2.462912154031287118e-02
 7.402787981539038498e-02
 1.234265938069217805e-01
 1.728252611029769403e-01
 2.222238791132319369e-01
 2.716224450521625977e-01
 3.210209559203054397e-01
 3.704194084833176137e-01
 4.198177992485245813e-01
 4.692161244386023333e-01
 5.186143799619812311e-01
 5.680125613794679840e-01
 6.174106638665283198e-01
 6.668086821705414557e-01
 7.162066105622628687e-01
 7.656044427804828967e-01
 8.150021719688251842e-01
 8.643997906033228373e-01
 9.137972904091216098e-01
 9.631946622644133038e-01
 2.462912154031288853e-02
 7.402787981539037110e-02
 1.234265938069216556e-01
 1.728252611029771346e-01
 2.222238791132320201e-01
 2.716224450521626532e-01
 3.210209559203054397e-01
 3.704194084833176692e-01
 4.198177992485233045e-01
 4.692161244386026664e-01
 5.186143799619805650e-01
 5.680125613794687611e-01
 6.174106638665266544e-01
 6.668086821705426770e-01
 7.162066105622638679e-01
 7.656044427804815644e-01
 8.150021719688269606e-01
 8.643997906033229484e-01
 9.137972904091224979e-01
 9.631946622644127487e-01
 2.462912154031285730e-02
 7.402787981539038498e-02
 1.234265938069217389e-01
 1.728252611029770236e-01
 2.222238791132321867e-01
 2.716224450521625422e-01
 3.210209559203054397e-01
 3.704194084833176692e-01
 4.198177992485236931e-01
 4.692161244386017227e-01
 5.186143799619812311e-01
 5.680125613794676509e-01
 6.174106638665270985e-01
 6.668086821705426770e-01
 7.162066105622648671e-01
 7.656044427804810093e-01
 8.150021719688242960e-01
 8.643997906033229484e-01
 9.137972904091221649e-01
 9.631946622644097511e-01
 </DataArray>
 <DataArray Name="pos.y" type="Float32" NumberOfComponents="1" format="ascii">
 2.250680597982042397e-02
 2.211931572007158966e-02
 2.173182580768862060e-02
 2.134433626159101816e-02
 2.095684710209762269e-02
 2.056935835105844906e-02
 2.018187003200165239e-02
 1.979438217029787228e-02
 1.940689479334408579e-02
 1.901940793077007766e-02
 1.863192161467068855e-02
 1.824443587986757445e-02
 1.785695076420486249e-02
 1.746946630888492058e-02
 1.708198255884862959e-02
 1.669449956320979284e-02
 1.630701737575061469e-02
 1.591953605549013481e-02
 1.553205566733734978e-02
 1.514457628284494178e-02
 6.752041793946128578e-02
 6.635794716021475859e-02
 6.519547742306583404e-02
 6.403300878477308222e-02
 6.287054130629286808e-02
 6.170807505317531250e-02
 6.054561009600503696e-02
 5.938314651089357521e-02
 5.822068438003224350e-02
 5.705822379231018787e-02
 5.589576484401209688e-02
 5.473330763960265050e-02
 5.357085229261467074e-02
 5.240839892665465072e-02
 5.124594767654594429e-02
 5.008349868962943402e-02
 4.892105212725172264e-02
 4.775860816647035240e-02
 4.659616700201216211e-02
 4.543372884853479760e-02
 1.125340298991021337e-01
 1.105965786003579449e-01
 1.086591290384431308e-01
 1.067216813079551740e-01
 1.047842355104880857e-01
 1.028467917552922106e-01
 1.009093501600082932e-01
 9.897191085148938916e-02
 9.703447396672031100e-02
 9.509703965385038482e-02
 9.315960807335359195e-02
 9.122217939933768838e-02
 8.928475382102431246e-02
 8.734733154442453351e-02
 8.540991279424317573e-02
 8.347249781604901275e-02
 8.153508687875307692e-02
 7.959768027745062202e-02
 7.766027833668681657e-02
 7.572288141422467422e-02
 1.575476418587429817e-01
 1.548352100405011034e-01
 1.521227806538204275e-01
 1.494103538311370993e-01
 1.466979297146833727e-01
 1.439855084574091226e-01
 1.412730902240115771e-01
 1.385606751920850366e-01
 1.358482635534082605e-01
 1.331358555153906165e-01
 1.304234513026947262e-01
 1.277110511590729414e-01
 1.249986553494340652e-01
 1.222862641621944441e-01
 1.195738779119404627e-01
 1.168614969424685568e-01
 1.141491216302542161e-01
 1.114367523884308986e-01
 1.087243896713612490e-01
 1.060120339799149047e-01
 2.025612538183836908e-01
 1.990738414806443313e-01
 1.955864322691976409e-01
 1.920990263543190801e-01
 1.886116239188787014e-01
 1.851242251595259236e-01
 1.816368302880148056e-01
 1.781494395326808644e-01
 1.746620531400965293e-01
 1.711746713769308481e-01
 1.676872945320365127e-01
 1.641999229188076947e-01
 1.607125568778440816e-01
 1.572251967799639383e-01
 1.537378430296380272e-01
 1.502504960688881008e-01
 1.467631563817554385e-01
 1.432758244994109531e-01
 1.397885010060365418e-01
 1.363011865456044969e-01
 2.475748657780245665e-01
 2.433124729207875314e-01
 2.390500838845748266e-01
 2.347876988775013940e-01
 2.305253181230738635e-01
 2.262629418616428634e-01
 2.220005703520180895e-01
 2.177382038732766645e-01
 2.134758427267845760e-01
 2.092134872384706634e-01
 2.049511377613776331e-01
 2.006887946785429477e-01
 1.964264584062537233e-01
 1.921641293977342790e-01
 1.879018081473351198e-01
 1.836394951953077836e-01
 1.793771911332565916e-01
 1.751148966103913962e-01
 1.708526123407110298e-01
 1.665903391112947274e-01
 2.925884777376654422e-01
 2.875511043609307316e-01
 2.825137354999520123e-01
 2.774763714006833193e-01
 2.724390123272690256e-01
 2.674016585637594146e-01
 2.623643104160215400e-01
 2.573269682138723535e-01
 2.522896323134729002e-01
 2.472523031000108118e-01
 2.422149809907191698e-01
 2.371776664382782007e-01
 2.321403599346636426e-01
 2.271030620155037871e-01
 2.220657732650321015e-01
 2.170284943217275220e-01
 2.119912258847576614e-01
 2.069539687213715062e-01
 2.019167236753854344e-01
 1.968794916769842640e-01
 3.376020896973064289e-01
 3.317897358010737929e-01
 3.259773871153297531e-01
 3.201650439238651891e-01
 3.143527065314643543e-01
 3.085403752658766319e-01
 3.027280504800247685e-01
 2.969157325544681814e-01
 2.911034219001611412e-01
 2.852911189615511267e-01
 2.794788242200602624e-01
 2.736665381980131762e-01
 2.678542614630738394e-01
 2.620419946332732120e-01
 2.562297383827288888e-01
 2.504174934481472881e-01
 2.446052606362590920e-01
 2.387930408323515052e-01
 2.329808350100605052e-01
 2.271686442426743557e-01
 3.826157016569470271e-01
 3.760283672412170208e-01
 3.694410387307065502e-01
 3.628537164470477805e-01
 3.562664007356595164e-01
 3.496790919679932941e-01
 3.430917905440278304e-01
 3.365044968950634541e-01
 3.299172114868490491e-01
 3.233299348230914139e-01
 3.167426674494014383e-01
 3.101554099577482071e-01
 3.035681629914828150e-01
 2.969809272510437470e-01
 2.903937035004272582e-01
 2.838064925745668599e-01
 2.772192953877603006e-01
 2.706321129433317263e-01
 2.640449463447351874e-01
 2.574577968083648360e-01
 4.276293136165876807e-01
 4.202669986813599157e-01
 4.129046903460837914e-01
 4.055423889702288176e-01
 3.981800949398550671e-01
 3.908178086701102893e-01
 3.834555306080312809e-01
 3.760932612356601146e-01
 3.687310010735373456e-01
 3.613687506846308684e-01
 3.540065106787432248e-01
 3.466442817174826829e-01
 3.392820645198929563e-01
 3.319198598688131718e-01
 3.245576686181247950e-01
 3.171954917009858210e-01
 3.098333301392610650e-01
 3.024711850543113645e-01
 2.951090576794097031e-01
 2.877469493740535955e-01
 </DataArray>
 <DataArray Name="pos.z" type="Float32" NumberOfComponents="1" format="ascii">
 0.000000000000000000e+00
 0.000000000000000000e+00
 0.000000000000000000e+00
 0.000000000000000000e+00
 0.000000000000000000e+00
 0.000000000000000000e+00
 0.000000000000000000e+00
 0.000000000000000000e+00
 0.000000000000000000e+00
 0.000000000000000000e+00
 0.000000000000000000e+00
 0.000000000000000000e+00
 0.000000000000000000e+00
 0.000000000000000000e+00
 0.000000000000000000e+00
 0.000000000000000000e+00
 0.000000000000000000e+00
 0.000000000000000000e+00
 0.000000000000000000e+00
 0.000000000000000000e+00
 0.000000000000000000e+00
 0.000000000000000000e+00
 0.000000000000000000e+00
 0.000000000000000000e+00
 0.000000000000000000e+00
 0.000000000000000000e+00
 0.000000000000000000e+00
 0.000000000000000000e+00
 0.000000000000000000e+00
 0.000000000000000000e+00
 0.000000000000000000e+00
 0.000000000000000000e+00
 0.000000000000000000e+00
 0.000000000000000000e+00
 0.000000000000000000e+00
 0.000000000000000000e+00
 0.000000000000000000e+00
 0.000000000000000000e+00
 0.000000000000000000e+00
 0.000000000000000000e+00
 0.000000000000000000e+00
 0.000000000000000000e+00
 0.000000000000000000e+00
 0.000000000000000000e+00
 0.000000000000000000e+00
 0.000000000000000000e+00
 0.000000000000000000e+00
 0.000000000000000000e+00
 0.000000000000000000e+00
 0.000000000000000000e+00
 0.000000000000000000e+00
 0.000000000000000000e+00
 0.000000000000000000e+00
 0.000000000000000000e+00
 0.000000000000000000e+00
 0.000000000000000000e+00
 0.000000000000000000e+00
 0.000000000000000000e+00
 0.000000000000000000e+00
 0.000000000000000000e+00
 0.000000000000000000e+00
 0.000000000000000000e+00
 0.000000000000000000e+00
 0.000000000000000000e+00
 0.000000000000000000e+00
 0.000000000000000000e+00
 0.000000000000000000e+00
 0.000000000000000000e+00
 0.000000000000000000e+00
 0.000000000000000000e+00
 0.000000000000000000e+00
 0.000000000000000000e+00
 0.000000000000000000e+00
 0.000000000000000000e+00
 0.000000000000000000e+00
 0.000000000000000000e+00
 0.000000000000000000e+00
 0.000000000000000000e+00
 0.000000000000000000e+00
 0.000000000000000000e+00
 0.000000000000000000e+00
 0.000000000000000000e+00
 0.000000000000000000e+00
 0.000000000000000000e+00
 0.000000000000000000e+00
 0.000000000000000000e+00
 0.000000000000000000e+00
 0.000000000000000000e+00
 0.000000000000000000e+00
 0.000000000000000000e+00
 0.000000000000000000e+00
 0.000000000000000000e+00
 0.000000000000000000e+00
 0.000000000000000000e+00
 0.000000000000000000e+00
 0.000000000000000000e+00
 0.000000000000000000e+00
 0.000000000000000000e+00
 0.000000000000000000e+00
 0.000000000000000000e+00
 0.000000000000000000e+00
 0.000000000000000000e+00
 0.000000000000000000e+00
 0.000000000000000000e+00
 0.000000000000000000e+00
 0.000000000000000000e+00
 0.000000000000000000e+00
 0.000000000000000000e+00
 0.000000000000000000e+00
 0.000000000000000000e+00
 0.000000000000000000e+00
 0.000000000000000000e+00
 0.000000000000000000e+00
 0.000000000000000000e+00
 0.000000000000000000e+00
 0.000000000000000000e+00
 0.000000000000000000e+00
 0.000000000000000000e+00
 0.000000000000000000e+00
 0.000000000000000000e+00
 0.000000000000000000e+00
 0.000000000000000000e+00
 0.000000000000000000e+00
 0.000000000000000000e+00
 0.000000000000000000e+00
 0.000000000000000000e+00
 0.000000000000000000e+00
 0.000000000000000000e+00
 0.000000000000000000e+00
 0.000000000000000000e+00
 0.000000000000000000e+00
 0.000000000000000000e+00
 0.000000000000000000e+00
 0.000000000000000000e+00
 0.000000000000000000e+00
 0.000000000000000000e+00
 0.000000000000000000e+00
 0.000000000000000000e+00
 0.000000000000000000e+00
 0.000000000000000000e+00
 0.000000000000000000e+00
 0.000000000000000000e+00
 0.000000000000000000e+00
 0.000000000000000000e+00
 0.000000000000000000e+00
 0.000000000000000000e+00
 0.000000000000000000e+00
 0.000000000000000000e+00
 0.000000000000000000e+00
 0.000000000000000000e+00
 0.000000000000000000e+00
 0.000000000000000000e+00
 0.000000000000000000e+00
 0.000000000000000000e+00
 0.000000000000000000e+00
 0.000000000000000000e+00
 0.000000000000000000e+00
 0.000000000000000000e+00
 0.000000000000000000e+00
 0.000000000000000000e+00
 0.000000000000000000e+00
 0.000000000000000000e+00
 0.000000000000000000e+00
 0.000000000000000000e+00
 0.000000000000000000e+00
 0.000000000000000000e+00
 0.000000000000000000e+00
 0.000000000000000000e+00
 0.000000000000000000e+00
 0.000000000000000000e+00
 0.000000000000000000e+00
 0.000000000000000000e+00
 0.000000000000000000e+00
 0.000000000000000000e+00
 0.000000000000000000e+00
 0.000000000000000000e+00
 0.000000000000000000e+00
 0.000000000000000000e+00
 0.000000000000000000e+00
 0.000000000000000000e+00
 0.000000000000000000e+00
 0.000000000000000000e+00
 0.000000000000000000e+00
 0.000000000000000000e+00
 0.000000000000000000e+00
 0.000000000000000000e+00
 0.000000000000000000e+00
 0.000000000000000000e+00
 0.000000000000000000e+00
 0.000000000000000000e+00
 0.000000000000000000e+00
 0.000000000000000000e+00
 0.000000000000000000e+00
 0.000000000000000000e+00
 0.000000000000000000e+00
 0.000000000000000000e+00
 0.000000000000000000e+00
 0.000000000000000000e+00
 0.000000000000000000e+00
 0.000000000000000000e+00
 </DataArray>
 <DataArray Name="volume" type="Float32" NumberOfComponents="1" format="ascii">
 2.223617499999999952e-03
 2.185332499999999203e-03
 2.147047500000003658e-03
 2.108762499999998572e-03
 2.070477500000002594e-03
 2.032192500000003579e-03
 1.993907499999999361e-03
 1.955622499999995576e-03
 1.917337499999997863e-03
 1.879052500000002318e-03
 1.840767499999996365e-03
 1.802482500000007759e-03
 1.764197499999991181e-03
 1.725912500000006044e-03
 1.687627499999997272e-03
 1.649342499999994355e-03
 1.611057500000002279e-03
 1.572772499999996326e-03
 1.534487500000004685e-03
 1.496202500000001767e-03
 2.223617499999999952e-03
 2.185332500000000070e-03
 2.147047500000002791e-03
 2.108762499999995536e-03
 2.070477500000002594e-03
 2.032192500000003579e-03
 1.993907499999998060e-03
 1.955622499999997311e-03
 1.917337499999997646e-03
 1.879052500000004053e-03
 1.840767499999993980e-03
 1.802482500000010361e-03
 1.764197499999991181e-03
 1.725912500000011899e-03
 1.687627499999996622e-03
 1.649342499999996523e-03
 1.611057500000011820e-03
 1.572772499999990905e-03
 1.534487500000008371e-03
 1.496202499999995045e-03
 2.223617500000001686e-03
 2.185332500000002672e-03
 2.147047500000001923e-03
 2.108762499999999439e-03
 2.070477500000005629e-03
 2.032192500000002278e-03
 1.993907500000002397e-03
 1.955622499999998178e-03
 1.917337500000000031e-03
 1.879052500000002318e-03
 1.840767499999995498e-03
 1.802482500000007759e-03
 1.764197499999999204e-03
 1.725912500000007779e-03
 1.687627499999996188e-03
 1.649342499999998258e-03
 1.611057500000010086e-03
 1.572772499999989821e-03
 1.534487500000011407e-03
 1.496202499999997430e-03
 2.223617499999998651e-03
 2.185332499999999203e-03
 2.147047500000001923e-03
 2.108762500000000307e-03
 2.070477500000000859e-03
 2.032192499999998809e-03
 1.993907500000000662e-03
 1.955622499999998178e-03
 1.917337500000002417e-03
 1.879052500000001668e-03
 1.840767499999999834e-03
 1.802482500000002989e-03
 1.764197499999996385e-03
 1.725912500000006044e-03
 1.687627499999997272e-03
 1.649342499999995222e-03
 1.611057500000007917e-03
 1.572772499999991556e-03
 1.534487500000005118e-03
 1.496202499999995262e-03
 2.223617500000000819e-03
 2.185332499999999203e-03
 2.147047500000002357e-03
 2.108762499999998572e-03
 2.070477499999999558e-03
 2.032192500000003146e-03
 1.993907500000002830e-03
 1.955622499999994709e-03
 1.917337500000001116e-03
 1.879052499999999933e-03
 1.840767499999994413e-03
 1.802482500000003422e-03
 1.764197499999992915e-03
 1.725912500000010815e-03
 1.687627499999994236e-03
 1.649342499999998258e-03
 1.611057500000008351e-03
 1.572772499999994375e-03
 1.534487499999999047e-03
 1.496202500000002418e-03
 2.223617500000002987e-03
 2.185332500000003540e-03
 2.147047500000000622e-03
 2.108762500000000307e-03
 2.070477500000007364e-03
 2.032192500000003146e-03
 1.993907500000002397e-03
 1.955622499999995576e-03
 1.917337500000004151e-03
 1.879052500000004920e-03
 1.840767500000001569e-03
 1.802482500000007109e-03
 1.764197499999999204e-03
 1.725912500000007996e-03
 1.687627500000000091e-03
 1.649342499999998258e-03
 1.611057500000008568e-03
 1.572772499999992640e-03
 1.534487500000004685e-03
 1.496202500000001333e-03
 2.223617500000002120e-03
 2.185332500000002239e-03
 2.147047500000004525e-03
 2.108762499999996404e-03
 2.070477499999999558e-03
 2.032192499999999676e-03
 1.993907499999999361e-03
 1.955622499999991673e-03
 1.917337499999999381e-03
 1.879052500000000367e-03
 1.840767499999996365e-03
 1.802482500000005157e-03
 1.764197499999994216e-03
 1.725912500000006044e-03
 1.687627499999994236e-03
 1.649342499999993704e-03
 1.611057500000011387e-03
 1.572772499999997410e-03
 1.534487500000000781e-03
 1.496202499999999165e-03
 2.223617499999994748e-03
 2.185332499999997468e-03
 2.147047499999999755e-03
 2.108762500000003776e-03
 2.070477500000003895e-03
 2.032192500000001411e-03
 1.993907500000006300e-03
 1.955622499999999046e-03
 1.917337500000001116e-03
 1.879052499999999933e-03
 1.840767499999998533e-03
 1.802482500000004073e-03
 1.764197499999991181e-03
 1.725912500000014067e-03
 1.687627500000001392e-03