<VTKFile type="UnstructuredGrid" byte_order="BigEndian">
<UnstructuredGrid><Piece NumberOfPoints="231" NumberOfCells="200">
<Points>
 <DataArray type="Float32" NumberOfComponents="3" format="ascii">
 9.879999756813049316e-01 0.000000000000000000e+00 0.000000000000000000e+00
 1.047099947929382324e+00 0.000000000000000000e+00 0.000000000000000000e+00
 1.106199979782104492e+00 0.000000000000000000e+00 0.000000000000000000e+00
 1.165300011634826660e+00 0.000000000000000000e+00 0.000000000000000000e+00
 1.224400043487548828e+00 0.000000000000000000e+00 0.000000000000000000e+00
 1.283499956130981445e+00 0.000000000000000000e+00 0.000000000000000000e+00
 1.342599987983703613e+00 0.000000000000000000e+00 0.000000000000000000e+00
 1.401700019836425781e+00 0.000000000000000000e+00 0.000000000000000000e+00
 1.460800051689147949e+00 0.000000000000000000e+00 0.000000000000000000e+00
 1.519899964332580566e+00 0.000000000000000000e+00 0.000000000000000000e+00
 1.578999996185302734e+00 0.000000000000000000e+00 0.000000000000000000e+00
 1.638100028038024902e+00 0.000000000000000000e+00 0.000000000000000000e+00
 1.697199940681457520e+00 0.000000000000000000e+00 0.000000000000000000e+00
 1.756299972534179688e+00 0.000000000000000000e+00 0.000000000000000000e+00
 1.815400004386901855e+00 0.000000000000000000e+00 0.000000000000000000e+00
 1.874500036239624023e+00 0.000000000000000000e+00 0.000000000000000000e+00
 1.933599948883056641e+00 0.000000000000000000e+00 0.000000000000000000e+00
 1.992699980735778809e+00 0.000000000000000000e+00 0.000000000000000000e+00
 2.051800012588500977e+00 0.000000000000000000e+00 0.000000000000000000e+00
 2.110899925231933594e+00 0.000000000000000000e+00 0.000000000000000000e+00
 2.170000076293945312e+00 0.000000000000000000e+00 0.000000000000000000e+00
 9.879999756813049316e-01 3.860000148415565491e-02 0.000000000000000000e+00
 1.047099947929382324e+00 3.695499897003173828e-02 0.000000000000000000e+00
 1.106199979782104492e+00 3.531000018119812012e-02 0.000000000000000000e+00
 1.165300011634826660e+00 3.366500139236450195e-02 0.000000000000000000e+00
 1.224400043487548828e+00 3.201999887824058533e-02 0.000000000000000000e+00
 1.283499956130981445e+00 3.037500008940696716e-02 0.000000000000000000e+00
 1.342599987983703613e+00 2.872999943792819977e-02 0.000000000000000000e+00
 1.401700019836425781e+00 2.708500064909458160e-02 0.000000000000000000e+00
 1.460800051689147949e+00 2.543999999761581421e-02 0.000000000000000000e+00
 1.519899964332580566e+00 2.379499934613704681e-02 0.000000000000000000e+00
 1.578999996185302734e+00 2.215000055730342865e-02 0.000000000000000000e+00
 1.638100028038024902e+00 2.050499990582466125e-02 0.000000000000000000e+00
 1.697199940681457520e+00 1.885999925434589386e-02 0.000000000000000000e+00
 1.756299972534179688e+00 1.721500046551227570e-02 0.000000000000000000e+00
 1.815400004386901855e+00 1.556999981403350830e-02 0.000000000000000000e+00
 1.874500036239624023e+00 1.392500009387731552e-02 0.000000000000000000e+00
 1.933599948883056641e+00 1.228000037372112274e-02 0.000000000000000000e+00
 1.992699980735778809e+00 1.063499972224235535e-02 0.000000000000000000e+00
 2.051800012588500977e+00 8.990000002086162567e-03 0.000000000000000000e+00
 2.110899925231933594e+00 7.344999816268682480e-03 0.000000000000000000e+00
 2.170000076293945312e+00 5.700000096112489700e-03 0.000000000000000000e+00
 9.879999756813049316e-01 7.720000296831130981e-02 0.000000000000000000e+00
 1.047099947929382324e+00 7.390999794006347656e-02 0.000000000000000000e+00
 1.106199979782104492e+00 7.062000036239624023e-02 0.000000000000000000e+00
 1.165300011634826660e+00 6.733000278472900391e-02 0.000000000000000000e+00
 1.224400043487548828e+00 6.403999775648117065e-02 0.000000000000000000e+00
 1.283499956130981445e+00 6.075000017881393433e-02 0.000000000000000000e+00
 1.342599987983703613e+00 5.745999887585639954e-02 0.000000000000000000e+00
 1.401700019836425781e+00 5.417000129818916321e-02 0.000000000000000000e+00
 1.460800051689147949e+00 5.087999999523162842e-02 0.000000000000000000e+00
 1.519899964332580566e+00 4.758999869227409363e-02 0.000000000000000000e+00
 1.578999996185302734e+00 4.430000111460685730e-02 0.000000000000000000e+00
 1.638100028038024902e+00 4.100999981164932251e-02 0.000000000000000000e+00
 1.697199940681457520e+00 3.771999850869178772e-02 0.000000000000000000e+00
 1.756299972534179688e+00 3.443000093102455139e-02 0.000000000000000000e+00
 1.815400004386901855e+00 3.113999962806701660e-02 0.000000000000000000e+00
 1.874500036239624023e+00 2.785000018775463104e-02 0.000000000000000000e+00
 1.933599948883056641e+00 2.456000074744224548e-02 0.000000000000000000e+00
 1.992699980735778809e+00 2.126999944448471069e-02 0.000000000000000000e+00
 2.051800012588500977e+00 1.798000000417232513e-02 0.000000000000000000e+00
 2.110899925231933594e+00 1.468999963253736496e-02 0.000000000000000000e+00
 2.170000076293945312e+00 1.140000019222497940e-02 0.000000000000000000e+00
 9.879999756813049316e-01 1.158000007271766663e-01 0.000000000000000000e+00
 1.047099947929382324e+00 1.108649969100952148e-01 0.000000000000000000e+00
 1.106199979782104492e+00 1.059300005435943604e-01 0.000000000000000000e+00
 1.165300011634826660e+00 1.009949967265129089e-01 0.000000000000000000e+00
 1.224400043487548828e+00 9.606000036001205444e-02 0.000000000000000000e+00
 1.283499956130981445e+00 9.112499654293060303e-02 0.000000000000000000e+00
 1.342599987983703613e+00 8.619000017642974854e-02 0.000000000000000000e+00
 1.401700019836425781e+00 8.125499635934829712e-02 0.000000000000000000e+00
 1.460800051689147949e+00 7.631999999284744263e-02 0.000000000000000000e+00
 1.519899964332580566e+00 7.138500362634658813e-02 0.000000000000000000e+00
 1.578999996185302734e+00 6.644999980926513672e-02 0.000000000000000000e+00
 1.638100028038024902e+00 6.151499971747398376e-02 0.000000000000000000e+00
 1.697199940681457520e+00 5.657999962568283081e-02 0.000000000000000000e+00
 1.756299972534179688e+00 5.164499953389167786e-02 0.000000000000000000e+00
 1.815400004386901855e+00 4.670999944210052490e-02 0.000000000000000000e+00
 1.874500036239624023e+00 4.177499935030937195e-02 0.000000000000000000e+00
 1.933599948883056641e+00 3.683999925851821899e-02 0.000000000000000000e+00
 1.992699980735778809e+00 3.190499916672706604e-02 0.000000000000000000e+00
 2.051800012588500977e+00 2.696999907493591309e-02 0.000000000000000000e+00
 2.110899925231933594e+00 2.203500084578990936e-02 0.000000000000000000e+00
 2.170000076293945312e+00 1.710000075399875641e-02 0.000000000000000000e+00
 9.879999756813049316e-01 1.544000059366226196e-01 0.000000000000000000e+00
 1.047099947929382324e+00 1.478199958801269531e-01 0.000000000000000000e+00
 1.106199979782104492e+00 1.412400007247924805e-01 0.000000000000000000e+00
 1.165300011634826660e+00 1.346600055694580078e-01 0.000000000000000000e+00
 1.224400043487548828e+00 1.280799955129623413e-01 0.000000000000000000e+00
 1.283499956130981445e+00 1.215000003576278687e-01 0.000000000000000000e+00
 1.342599987983703613e+00 1.149199977517127991e-01 0.000000000000000000e+00
 1.401700019836425781e+00 1.083400025963783264e-01 0.000000000000000000e+00
 1.460800051689147949e+00 1.017599999904632568e-01 0.000000000000000000e+00
 1.519899964332580566e+00 9.517999738454818726e-02 0.000000000000000000e+00
 1.578999996185302734e+00 8.860000222921371460e-02 0.000000000000000000e+00
 1.638100028038024902e+00 8.201999962329864502e-02 0.000000000000000000e+00
 1.697199940681457520e+00 7.543999701738357544e-02 0.000000000000000000e+00
 1.756299972534179688e+00 6.886000186204910278e-02 0.000000000000000000e+00
 1.815400004386901855e+00 6.227999925613403320e-02 0.000000000000000000e+00
 1.874500036239624023e+00 5.570000037550926208e-02 0.000000000000000000e+00
 1.933599948883056641e+00 4.912000149488449097e-02 0.000000000000000000e+00
 1.992699980735778809e+00 4.253999888896942139e-02 0.000000000000000000e+00
 2.051800012588500977e+00 3.596000000834465027e-02 0.000000000000000000e+00
 2.110899925231933594e+00 2.937999926507472992e-02 0.000000000000000000e+00
 2.170000076293945312e+00 2.280000038444995880e-02 0.000000000000000000e+00
 9.879999756813049316e-01 1.930000036954879761e-01 0.000000000000000000e+00
 1.047099947929382324e+00 1.847749948501586914e-01 0.000000000000000000e+00
 1.106199979782104492e+00 1.765500009059906006e-01 0.000000000000000000e+00
 1.165300011634826660e+00 1.683250069618225098e-01 0.000000000000000000e+00
 1.224400043487548828e+00 1.600999981164932251e-01 0.000000000000000000e+00
 1.283499956130981445e+00 1.518750041723251343e-01 0.000000000000000000e+00
 1.342599987983703613e+00 1.436499953269958496e-01 0.000000000000000000e+00
 1.401700019836425781e+00 1.354250013828277588e-01 0.000000000000000000e+00
 1.460800051689147949e+00 1.272000074386596680e-01 0.000000000000000000e+00
 1.519899964332580566e+00 1.189749985933303833e-01 0.000000000000000000e+00
 1.578999996185302734e+00 1.107499971985816956e-01 0.000000000000000000e+00
 1.638100028038024902e+00 1.025250032544136047e-01 0.000000000000000000e+00
 1.697199940681457520e+00 9.430000185966491699e-02 0.000000000000000000e+00
 1.756299972534179688e+00 8.607500046491622925e-02 0.000000000000000000e+00
 1.815400004386901855e+00 7.784999907016754150e-02 0.000000000000000000e+00
 1.874500036239624023e+00 6.962499767541885376e-02 0.000000000000000000e+00
 1.933599948883056641e+00 6.140000000596046448e-02 0.000000000000000000e+00
 1.992699980735778809e+00 5.317499861121177673e-02 0.000000000000000000e+00
 2.051800012588500977e+00 4.495000094175338745e-02 0.000000000000000000e+00
 2.110899925231933594e+00 3.672499954700469971e-02 0.000000000000000000e+00
 2.170000076293945312e+00 2.850000001490116119e-02 0.000000000000000000e+00
 9.879999756813049316e-01 2.316000014543533325e-01 0.000000000000000000e+00
 1.047099947929382324e+00 2.217299938201904297e-01 0.000000000000000000e+00
[...]
<CellData>
 <DataArray Name="pos.x" type="Float32" NumberOfComponents="1" format="ascii">
 1.017335543643701046e+00
 1.076425780114859121e+00
 1.135515085175781813e+00
 1.194603318870368414e+00
 1.253690311723695272e+00
 1.312775856526521956e+00
 1.371859697214010243e+00
 1.430941513564969236e+00
 1.490020899766424156e+00
 1.549097333768647555e+00
 1.608170132458095702e+00
 1.667238384351572122e+00
 1.726300845460856825e+00
 1.785355772456911572e+00
 1.844400644176984461e+00
 1.903431673344776920e+00
 1.962442897665274355e+00
 2.021424356687897994e+00
 2.080358065503517651e+00
 2.139207895745520727e+00
 1.017335543643698159e+00
 1.076425780114856234e+00
 1.135515085175785366e+00
 1.194603318870370412e+00
 1.253690311723697270e+00
 1.312775856526521956e+00
 1.371859697214003138e+00
 1.430941513564968348e+00
 1.490020899766425932e+00
 1.549097333768632456e+00
 1.608170132458091484e+00
 1.667238384351586111e+00
 1.726300845460848832e+00
 1.785355772456914680e+00
 1.844400644176968695e+00
 1.903431673344783803e+00
 1.962442897665278574e+00
 2.021424356687894441e+00
 2.080358065503522536e+00
 2.139207895745498078e+00
 1.017335543643701934e+00
 1.076425780114855346e+00
 1.135515085175791139e+00
 1.194603318870362862e+00
 1.253690311723697270e+00
 1.312775856526519958e+00
 1.371859697214018237e+00
 1.430941513564963463e+00
 1.490020899766416607e+00
 1.549097333768640672e+00
 1.608170132458102142e+00
 1.667238384351581226e+00
 1.726300845460844613e+00
 1.785355772456903800e+00
 1.844400644176978910e+00
 1.903431673344792685e+00
 1.962442897665288344e+00
 2.021424356687891333e+00
 2.080358065503538967e+00
 2.139207895745517174e+00
 1.017335543643703488e+00
 1.076425780114853126e+00
 1.135515085175788474e+00
 1.194603318870371522e+00
 1.253690311723695272e+00
 1.312775856526522178e+00
 1.371859697214009355e+00
 1.430941513564967904e+00
 1.490020899766441698e+00
 1.549097333768637341e+00
 1.608170132458093038e+00
 1.667238384351583225e+00
 1.726300845460846389e+00
 1.785355772456918011e+00
 1.844400644176983795e+00
 1.903431673344789132e+00
 1.962442897665276131e+00
 2.021424356687900659e+00
 2.080358065503512766e+00
 2.139207895745502519e+00
 1.017335543643702600e+00
 1.076425780114859787e+00
 1.135515085175788697e+00
 1.194603318870361752e+00
 1.253690311723697270e+00
 1.312775856526520846e+00
 1.371859697214014018e+00
 1.430941513564968126e+00
 1.490020899766431040e+00
 1.549097333768632012e+00
 1.608170132458101920e+00
 1.667238384351582337e+00
 1.726300845460850830e+00
 1.785355772456912016e+00
 1.844400644176980464e+00
 1.903431673344792463e+00
 1.962442897665289232e+00
 2.021424356687904655e+00
 2.080358065503522091e+00
 2.139207895745497634e+00
 1.017335543643704820e+00
 1.076425780114854680e+00
 1.135515085175790473e+00
 1.194603318870363529e+00
 1.253690311723694384e+00
 1.312775856526519069e+00
 1.371859697214010021e+00
 1.430941513564967016e+00
 1.490020899766427487e+00
 1.549097333768636675e+00
 1.608170132458095702e+00
 1.667238384351588776e+00
 1.726300845460842615e+00
 1.785355772456905576e+00
 1.844400644176987791e+00
 1.903431673344789132e+00
 1.962442897665277464e+00
 2.021424356687906432e+00
 2.080358065503512766e+00
 2.139207895745509180e+00
 1.017335543643702156e+00
 1.076425780114855346e+00
 1.135515085175789363e+00
 1.194603318870367525e+00
 1.253690311723689055e+00
 1.312775856526522178e+00
 1.371859697214004914e+00
 1.430941513564977008e+00
 1.490020899766420603e+00
 1.549097333768647777e+00
 1.608170132458091039e+00
 1.667238384351569236e+00
 1.726300845460846389e+00
 1.785355772456927115e+00
 1.844400644176988902e+00
 1.903431673344783359e+00
 1.962442897665264141e+00
 2.021424356687901991e+00
 2.080358065503512766e+00
 2.139207895745494969e+00
 1.017335543643701934e+00
 1.076425780114854458e+00
 1.135515085175791583e+00
 1.194603318870365749e+00
 1.253690311723694606e+00
 1.312775856526514628e+00
 1.371859697214008467e+00
 1.430941513564962131e+00
 1.490020899766428153e+00
 1.549097333768641782e+00
 1.608170132458101032e+00
 1.667238384351583225e+00
 1.726300845460853273e+00
 1.785355772456919121e+00
 1.844400644176981352e+00
 1.903431673344779584e+00
 1.962442897665274355e+00
 2.021424356687910429e+00
 2.080358065503522091e+00
 2.139207895745506960e+00
 1.017335543643702822e+00
 1.076425780114855346e+00
 1.135515085175787142e+00
 1.194603318870366193e+00
 1.253690311723696160e+00
 1.312775856526520180e+00
 1.371859697214010021e+00
 1.430941513564966350e+00
 1.490020899766419937e+00
 1.549097333768644669e+00
 1.608170132458100587e+00
 1.667238384351575231e+00
 1.726300845460835509e+00
 1.785355772456919121e+00
 1.844400644176973580e+00
 1.903431673344776920e+00
 1.962442897665281238e+00
 2.021424356687890000e+00
 2.080358065503497667e+00
 2.139207895745502519e+00
 1.017335543643703266e+00
 1.076425780114856234e+00
 1.135515085175787808e+00
 1.194603318870367081e+00
 1.253690311723694828e+00
 1.312775856526525287e+00
 1.371859697214008245e+00
 1.430941513564971013e+00
 1.490020899766427931e+00
 1.549097333768642448e+00
 1.608170132458101254e+00
 1.667238384351586333e+00
 1.726300845460857492e+00
 1.785355772456908019e+00
 1.844400644176984461e+00
 1.903431673344788910e+00
 1.962442897665271024e+00
 2.021424356687890000e+00
 2.080358065503531861e+00
 2.139207895745518950e+00
 </DataArray>
 <DataArray Name="pos.y" type="Float32" NumberOfComponents="1" format="ascii">
 1.889173460834268903e-02
 1.806937048824931030e-02
 1.724701933067529155e-02
 1.642468308340315486e-02
 1.560236410502976838e-02
 1.478006527930520939e-02
 1.395779016990651711e-02
 1.313554323338094604e-02
 1.231333011746385715e-02
 1.149115808756853707e-02
 1.066903665064665614e-02
 9.846978491892102725e-03
 9.025000924000955646e-03
 8.203128209038677496e-03
 7.381395434254391791e-03
 6.559855307511300998e-03
 5.738590806604102965e-03
 4.917740552016981043e-03
 4.097554841342716629e-03
 3.278536476300005810e-03
 5.667520382502792831e-02
 5.420811146474800724e-02
 5.174105799202582262e-02
 4.927404925020956866e-02
 4.680709231508942830e-02
 4.434019583791554142e-02
 4.187337050971951663e-02
 3.940662970014286587e-02
 3.693999035239158013e-02
 3.447347426270544468e-02
 3.200710995193990077e-02
 2.954093547567647471e-02
 2.707500277200273336e-02
 2.460938462711606892e-02
 2.214418630276315109e-02
 1.967956592253390299e-02
 1.721577241981231410e-02
 1.475322165605088935e-02
 1.229266452402817851e-02
 9.835609428899987072e-03
 9.445867304171347290e-02
 9.034685244124647518e-02
 8.623509665337684982e-02
 8.212341541701548286e-02
 7.801182052514894771e-02
 7.390032639652595325e-02
 6.978895084953291861e-02
 6.567771616690459835e-02
 6.156665058731902035e-02
 5.745579043784244944e-02
 5.334518325323343163e-02
 4.923489245946077036e-02
 4.512500462000453710e-02
 4.101564104519333370e-02
 3.690697717127194855e-02
 3.279927653755657785e-02
 2.869295403302063799e-02
 2.458870276008486011e-02
 2.048777420671371238e-02
 1.639268238149997267e-02
 1.322421422583987816e-01
 1.264855934177447627e-01
 1.207291353147277174e-01
 1.149727815838222922e-01
 1.092165487352085296e-01
 1.034604569551363373e-01
 9.770453118934564751e-02
 9.194880263366665696e-02
 8.619331082224736262e-02
 8.043810661297931541e-02
 7.468325655452648371e-02
 6.892884944324495500e-02
 6.317500646800644493e-02
 5.742189746327086564e-02
 5.166976803978087784e-02
 4.591898715257927005e-02
 4.017013564622862881e-02
 3.442418386411900955e-02
 2.868288388939893921e-02
 2.294975533409999990e-02
 1.700256114750841319e-01
 1.626243343942438968e-01
 1.552231739760784046e-01
 1.478221477506279913e-01
 1.404212769452679865e-01
 1.330205875137469018e-01
 1.256201115291590564e-01
 1.182198891004284658e-01
 1.108199710571748930e-01
 1.034204227881160149e-01
 9.602132985582018110e-02
 8.862280642702918820e-02
 8.122500831600841520e-02
 7.382815388134811307e-02
 6.643255890828977939e-02
 5.903869776760178878e-02
 5.164731725943720597e-02
 4.425966496815304796e-02
 3.687799357208457196e-02
 2.950682828669967672e-02
 2.078090806917702871e-01
 1.987630753707419207e-01
 1.897172126374291612e-01
 1.806715139174341900e-01
 1.716260051553272215e-01
 1.625807180723571888e-01
 1.535356918689716466e-01
 1.444909755671906493e-01
 1.354466312921023541e-01
 1.264027389632532139e-01
 1.173594031571133373e-01
 1.083167634108137822e-01
 9.927501016400970546e-02
 9.023441029942541602e-02
 8.119534977679887522e-02
 7.215840838262427281e-02
 6.312449887264522108e-02
 5.409514607218703780e-02
 4.507310325476977797e-02
 3.606390123930006131e-02
 2.455925499084549990e-01
 2.349018163472400555e-01
 2.242112512987798345e-01
 2.135208800842414711e-01
 2.028307333653860123e-01
 1.921408486309675867e-01
 1.814512722087842089e-01
 1.707620620339533046e-01
 1.600732915270295376e-01
 1.493850551383908432e-01
 1.386974764584066322e-01
 1.280107203945973493e-01
 1.173250120120119533e-01
 1.066406667175033712e-01
 9.595814064530788778e-02
 8.527811899764690950e-02
 7.460168048585283374e-02
 6.393062717622080560e-02
 5.326821293745545582e-02
 4.262097419189972425e-02
 2.833760191251403771e-01
 2.710405573237383292e-01
 2.587052899601314238e-01
 2.463702462510471980e-01
 2.340354615754465240e-01
 2.217009791895769022e-01
 2.093668525485976595e-01
 1.970331485007136840e-01
 1.846999517619582198e-01
 1.723673713135273899e-01
 1.600355497596998855e-01
 1.477046773783821654e-01
 1.353750138600137987e-01
 1.230469231355801329e-01
 1.107209315138161232e-01
 9.839782961266965722e-02
 8.607886209906134845e-02
 7.376610828025514932e-02
 6.146332262014065489e-02
 4.917804714449956066e-02
 3.211594883418258939e-01
 3.071792983002377131e-01
 2.931993286214809591e-01
 2.792196124178535910e-01
 2.652401897855058976e-01
 2.512611097481877720e-01
 2.372824328884113043e-01
 2.233042349674757565e-01
 2.093266119968843764e-01
 1.953496874886643253e-01
 1.813736230609933608e-01
 1.673986343621658435e-01
 1.534250157080148669e-01
 1.394531795536576579e-01
 1.254837223823243586e-01
 1.115175402276920996e-01
 9.755604371226966887e-02
 8.360158938428864650e-02
 6.965843230282588172e-02
 5.573512009710013954e-02
 3.589429575585119103e-01
 3.433180392767359312e-01
 3.276933672828324928e-01
 3.120689785846597619e-01
 2.964449179955658820e-01
 2.808212403067988916e-01
 2.651980132282232838e-01
 2.495753214342376902e-01
 2.339532722318135027e-01
 2.183320036638021211e-01
 2.027116963622870027e-01
 1.870925913459509926e-01
 1.714750175560175727e-01
 1.558594359717348776e-01
 1.402465132508328993e-01
 1.246372508427150000e-01
 1.090332253254778228e-01
 9.343707048832272655e-02
 7.785354198551171223e-02
 6.229219304969955268e-02
 </DataArray>
 <DataArray Name="pos.z" type="Float32" NumberOfComponents="1" format="ascii">
 0.000000000000000000e+00
 0.000000000000000000e+00
 0.000000000000000000e+00
 0.000000000000000000e+00
 0.000000000000000000e+00
 0.000000000000000000e+00
 0.000000000000000000e+00
 0.000000000000000000e+00
 0.000000000000000000e+00
 0.000000000000000000e+00
 0.000000000000000000e+00
 0.000000000000000000e+00
 0.000000000000000000e+00
 0.000000000000000000e+00
 0.000000000000000000e+00
 0.000000000000000000e+00
 0.000000000000000000e+00
 0.000000000000000000e+00
 0.000000000000000000e+00
 0.000000000000000000e+00
 0.000000000000000000e+00
 0.000000000000000000e+00
 0.000000000000000000e+00
 0.000000000000000000e+00
 0.000000000000000000e+00
 0.000000000000000000e+00
 0.000000000000000000e+00
 0.000000000000000000e+00
 0.000000000000000000e+00
 0.000000000000000000e+00
 0.000000000000000000e+00
 0.000000000000000000e+00
 0.000000000000000000e+00
 0.000000000000000000e+00
 0.000000000000000000e+00
 0.000000000000000000e+00
 0.000000000000000000e+00
 0.000000000000000000e+00
 0.000000000000000000e+00
 0.000000000000000000e+00
 0.000000000000000000e+00
 0.000000000000000000e+00
 0.000000000000000000e+00
 0.000000000000000000e+00
 0.000000000000000000e+00
 0.000000000000000000e+00
 0.000000000000000000e+00
 0.000000000000000000e+00
 0.000000000000000000e+00
 0.000000000000000000e+00
 0.000000000000000000e+00
 0.000000000000000000e+00
 0.000000000000000000e+00
 0.000000000000000000e+00
 0.000000000000000000e+00
 0.000000000000000000e+00
 0.000000000000000000e+00
 0.000000000000000000e+00
 0.000000000000000000e+00
 0.000000000000000000e+00
 0.000000000000000000e+00
 0.000000000000000000e+00
 0.000000000000000000e+00
 0.000000000000000000e+00
 0.000000000000000000e+00
 0.000000000000000000e+00
 0.000000000000000000e+00
 0.000000000000000000e+00
 0.000000000000000000e+00
 0.000000000000000000e+00
 0.000000000000000000e+00
 0.000000000000000000e+00
 0.000000000000000000e+00
 0.000000000000000000e+00
 0.000000000000000000e+00
 0.000000000000000000e+00
 0.000000000000000000e+00
 0.000000000000000000e+00
 0.000000000000000000e+00
 0.000000000000000000e+00
 0.000000000000000000e+00
 0.000000000000000000e+00
 0.000000000000000000e+00
 0.000000000000000000e+00
 0.000000000000000000e+00
 0.000000000000000000e+00
 0.000000000000000000e+00
 0.000000000000000000e+00
 0.000000000000000000e+00
 0.000000000000000000e+00
 0.000000000000000000e+00
 0.000000000000000000e+00
 0.000000000000000000e+00
 0.000000000000000000e+00
 0.000000000000000000e+00
 0.000000000000000000e+00
 0.000000000000000000e+00
 0.000000000000000000e+00
 0.000000000000000000e+00
 0.000000000000000000e+00
 0.000000000000000000e+00
 0.000000000000000000e+00
 0.000000000000000000e+00
 0.000000000000000000e+00
 0.000000000000000000e+00
 0.000000000000000000e+00
 0.000000000000000000e+00
 0.000000000000000000e+00
 0.000000000000000000e+00
 0.000000000000000000e+00
 0.000000000000000000e+00
 0.000000000000000000e+00
 0.000000000000000000e+00
 0.000000000000000000e+00
 0.000000000000000000e+00
 0.000000000000000000e+00
 0.000000000000000000e+00
 0.000000000000000000e+00
 0.000000000000000000e+00
 0.000000000000000000e+00
 0.000000000000000000e+00
 0.000000000000000000e+00
 0.000000000000000000e+00
 0.000000000000000000e+00
 0.000000000000000000e+00
 0.000000000000000000e+00
 0.000000000000000000e+00
 0.000000000000000000e+00
 0.000000000000000000e+00
 0.000000000000000000e+00
 0.000000000000000000e+00
 0.000000000000000000e+00
 0.000000000000000000e+00
 0.000000000000000000e+00
 0.000000000000000000e+00
 0.000000000000000000e+00
 0.000000000000000000e+00
 0.000000000000000000e+00
 0.000000000000000000e+00
 0.000000000000000000e+00
 0.000000000000000000e+00
 0.000000000000000000e+00
 0.000000000000000000e+00
 0.000000000000000000e+00
 0.000000000000000000e+00
 0.000000000000000000e+00
 0.000000000000000000e+00
 0.000000000000000000e+00
 0.000000000000000000e+00
 0.000000000000000000e+00
 0.000000000000000000e+00
 0.000000000000000000e+00
 0.000000000000000000e+00
 0.000000000000000000e+00
 0.000000000000000000e+00
 0.000000000000000000e+00
 0.000000000000000000e+00
 0.000000000000000000e+00
 0.000000000000000000e+00
 0.000000000000000000e+00
 0.000000000000000000e+00
 0.000000000000000000e+00
 0.000000000000000000e+00
 0.000000000000000000e+00
 0.000000000000000000e+00
 0.000000000000000000e+00
 0.000000000000000000e+00
 0.000000000000000000e+00
 0.000000000000000000e+00
 0.000000000000000000e+00
 0.000000000000000000e+00
 0.000000000000000000e+00
 0.000000000000000000e+00
 0.000000000000000000e+00
 0.000000000000000000e+00
 0.000000000000000000e+00
 0.000000000000000000e+00
 0.000000000000000000e+00
 0.000000000000000000e+00
 0.000000000000000000e+00
 0.000000000000000000e+00
 0.000000000000000000e+00
 0.000000000000000000e+00
 0.000000000000000000e+00
 0.000000000000000000e+00
 0.000000000000000000e+00
 0.000000000000000000e+00
 0.000000000000000000e+00
 0.000000000000000000e+00
 0.000000000000000000e+00
 0.000000000000000000e+00
 0.000000000000000000e+00
 0.000000000000000000e+00
 0.000000000000000000e+00
 0.000000000000000000e+00
 0.000000000000000000e+00
 0.000000000000000000e+00
 0.000000000000000000e+00
 0.000000000000000000e+00
 0.000000000000000000e+00
 </DataArray>
 <DataArray Name="volume" type="Float32" NumberOfComponents="1" format="ascii">
 4.217863599624988849e-05
 3.858588937375009896e-05
 3.515306882875005929e-05
 3.188017436125013538e-05
 2.876720597124976482e-05
 2.581416365875020458e-05
 2.302104742374981144e-05
 2.038785726625003212e-05
 1.791459318625005347e-05
 1.560125518375004490e-05
 1.344784325874999963e-05
 1.145435741125002778e-05
 9.620797641249932830e-06
 7.947163948750024799e-06
 6.433456333749934381e-06
 5.079674796249981754e-06
 3.885819336250033932e-06
 2.851889953750006214e-06
 1.977886648749996431e-06
 1.263809421249997807e-06
 1.265359079887493402e-04
 1.157576681212502427e-04
 1.054592064862502389e-04
 9.564052308375001990e-05
 8.630161791374962648e-05
 7.744249097625046806e-05
 6.906314227124956307e-05
 6.116357179875002859e-05
 5.374377955874997406e-05
 4.680376555125028717e-05
 4.034352977624988370e-05
 3.436307223375005792e-05
 2.886239292374985439e-05
 2.384149184625005238e-05
 1.930036900125006572e-05
 1.523902438874983006e-05
 1.165745800875014500e-05
 8.555669861249944950e-06
 5.933659946249969387e-06
 3.791428263750003162e-06
 2.108931799812488190e-04
 1.929294468687516061e-04
 1.757653441437500186e-04
 1.594008718062505888e-04
 1.438360298562499557e-04
 1.290708182937498540e-04
 1.151052371187498229e-04
 1.019392863312499438e-04
 8.957296593125067732e-05
 7.800627591875045150e-05
 6.723921629374971355e-05
 5.727178705624994069e-05
 4.810398820624992673e-05
 3.973581974375000372e-05
 3.216728166875001580e-05
 2.539837398124973936e-05
 1.942909668125025521e-05
 1.425944976874994383e-05
 9.889433243750043564e-06
 6.319047106250038586e-06
 2.952504519737475389e-04
 2.701012256162515059e-04
 2.460714818012490123e-04
 2.231612205287514424e-04
 2.013704417987489568e-04
 1.806991456112497956e-04
 1.611473319662498388e-04
 1.427150008637497098e-04
 1.254021523037504658e-04
 1.092087862862497891e-04
 9.413490281124986189e-05
 8.018050187874977601e-05
 6.734558348874993808e-05
 5.563014764125019901e-05
 4.503419433624948815e-05
 3.555772357375008234e-05
 2.720073535375017569e-05
 1.996322967624995117e-05
 1.384520654124993563e-05
 8.846665948749969825e-06
 3.796077239662488337e-04
 3.472730043637527880e-04
 3.163776194587502016e-04
 2.869215692512519706e-04
 2.589048537412486626e-04
 2.323274729287498998e-04
 2.071894268137500716e-04
 1.834907153962498283e-04
 1.612313386762505795e-04
 1.404112966537505091e-04
 1.210305893287500373e-04
 1.030892167012499366e-04
 8.658717877124992232e-05
 7.152447553875010292e-05
 5.790110700374917057e-05
 4.571707316625012039e-05
 3.497237402625023509e-05
 2.566700958375011098e-05
 1.780097983875002590e-05
 1.137428479124999170e-05
 4.639649959587494781e-04
 4.244447831112514139e-04
 3.866837571162495477e-04
 3.506819179737527157e-04
 3.164392656837483413e-04
 2.839558002462492180e-04
 2.532315216612497080e-04
 2.242664299287499738e-04
 1.970605250487504764e-04
 1.716138070212505922e-04
 1.479262758462501315e-04
 1.259979315237501243e-04
 1.058287740537494322e-04
 8.741880343624989841e-05
 7.076801967124962548e-05
 5.587642275875002968e-05
 4.274401269875022333e-05
 3.137078949125003024e-05
 2.175675313624991119e-05
 1.390190363374997630e-05
 5.483222679512476288e-04
 5.016165618587523165e-04
 4.569898947737497611e-04
 4.144422666962540029e-04
 3.739736776262471527e-04
 3.355841275637508401e-04
 2.992736165087495613e-04
 2.650421444612499297e-04
 2.328897114212511864e-04
 2.028163173887514070e-04
 1.748219623637495886e-04
 1.489066463462499596e-04
 1.250703693362498637e-04
 1.033131313337504664e-04
 8.363493233874950440e-05
 6.603577235125006773e-05
 5.051565137125036743e-05
 3.707456939875010534e-05
 2.571252643375002348e-05
 1.642952247624998631e-05
 6.326795399437466468e-04
 5.787883406062500208e-04
 5.272960324312478061e-04
 4.782026154187511702e-04
 4.315080895687456388e-04
 3.872124548812513781e-04
 3.453157113562492519e-04
 3.058178589937489639e-04
 2.687188977937500262e-04
 2.340188277562503245e-04
 2.017176488812489645e-04
 1.718153611687496594e-04
 1.443119646187498073e-04
 1.192074592312507633e-04
 9.650184500624884123e-05