<VTKFile type="UnstructuredGrid" byte_order="BigEndian">
<UnstructuredGrid><Piece NumberOfPoints="861" NumberOfCells="800">
<Points>
 <DataArray type="Float32" NumberOfComponents="3" format="ascii">
 9.879999756813049316e-01 0.000000000000000000e+00 0.000000000000000000e+00
 1.008474946022033691e+00 0.000000000000000000e+00 0.000000000000000000e+00
 1.028949975967407227e+00 0.000000000000000000e+00 0.000000000000000000e+00
 1.049425005912780762e+00 0.000000000000000000e+00 0.000000000000000000e+00
 1.069900035858154297e+00 0.000000000000000000e+00 0.000000000000000000e+00
 1.090374946594238281e+00 0.000000000000000000e+00 0.000000000000000000e+00
 1.110849976539611816e+00 0.000000000000000000e+00 0.000000000000000000e+00
 1.131325006484985352e+00 0.000000000000000000e+00 0.000000000000000000e+00
 1.151800036430358887e+00 0.000000000000000000e+00 0.000000000000000000e+00
 1.172274947166442871e+00 0.000000000000000000e+00 0.000000000000000000e+00
 1.192749977111816406e+00 0.000000000000000000e+00 0.000000000000000000e+00
 1.213225007057189941e+00 0.000000000000000000e+00 0.000000000000000000e+00
 1.233700037002563477e+00 0.000000000000000000e+00 0.000000000000000000e+00
 1.254174947738647461e+00 0.000000000000000000e+00 0.000000000000000000e+00
 1.274649977684020996e+00 0.000000000000000000e+00 0.000000000000000000e+00
 1.295125007629394531e+00 0.000000000000000000e+00 0.000000000000000000e+00
 1.315600037574768066e+00 0.000000000000000000e+00 0.000000000000000000e+00
 1.336074948310852051e+00 0.000000000000000000e+00 0.000000000000000000e+00
 1.356549978256225586e+00 0.000000000000000000e+00 0.000000000000000000e+00
 1.377025008201599121e+00 0.000000000000000000e+00 0.000000000000000000e+00
 1.397500038146972656e+00 0.000000000000000000e+00 0.000000000000000000e+00
 1.417974948883056641e+00 0.000000000000000000e+00 0.000000000000000000e+00
 1.438449978828430176e+00 0.000000000000000000e+00 0.000000000000000000e+00
 1.458925008773803711e+00 0.000000000000000000e+00 0.000000000000000000e+00
 1.479400038719177246e+00 0.000000000000000000e+00 0.000000000000000000e+00
 1.499874949455261230e+00 0.000000000000000000e+00 0.000000000000000000e+00
 1.520349979400634766e+00 0.000000000000000000e+00 0.000000000000000000e+00
 1.540825009346008301e+00 0.000000000000000000e+00 0.000000000000000000e+00
 1.561300039291381836e+00 0.000000000000000000e+00 0.000000000000000000e+00
 1.581774950027465820e+00 0.000000000000000000e+00 0.000000000000000000e+00
 1.602249979972839355e+00 0.000000000000000000e+00 0.000000000000000000e+00
 1.622725009918212891e+00 0.000000000000000000e+00 0.000000000000000000e+00
 1.643200039863586426e+00 0.000000000000000000e+00 0.000000000000000000e+00
 1.663674950599670410e+00 0.000000000000000000e+00 0.000000000000000000e+00
 1.684149980545043945e+00 0.000000000000000000e+00 0.000000000000000000e+00
 1.704625010490417480e+00 0.000000000000000000e+00 0.000000000000000000e+00
 1.725100040435791016e+00 0.000000000000000000e+00 0.000000000000000000e+00
 1.745574951171875000e+00 0.000000000000000000e+00 0.000000000000000000e+00
 1.766049981117248535e+00 0.000000000000000000e+00 0.000000000000000000e+00
 1.786525011062622070e+00 0.000000000000000000e+00 0.000000000000000000e+00
 1.807000041007995605e+00 0.000000000000000000e+00 0.000000000000000000e+00
 9.879999756813049316e-01 1.494999974966049194e-02 0.000000000000000000e+00
 1.008474946022033691e+00 1.463249977678060532e-02 0.000000000000000000e+00
 1.028949975967407227e+00 1.431499980390071869e-02 0.000000000000000000e+00
 1.049425005912780762e+00 1.399749983102083206e-02 0.000000000000000000e+00
 1.069900035858154297e+00 1.367999985814094543e-02 0.000000000000000000e+00
 1.090374946594238281e+00 1.336249988526105881e-02 0.000000000000000000e+00
 1.110849976539611816e+00 1.304499991238117218e-02 0.000000000000000000e+00
 1.131325006484985352e+00 1.272749993950128555e-02 0.000000000000000000e+00
 1.151800036430358887e+00 1.240999996662139893e-02 0.000000000000000000e+00
 1.172274947166442871e+00 1.209249999374151230e-02 0.000000000000000000e+00
 1.192749977111816406e+00 1.177500002086162567e-02 0.000000000000000000e+00
 1.213225007057189941e+00 1.145750004798173904e-02 0.000000000000000000e+00
 1.233700037002563477e+00 1.114000007510185242e-02 0.000000000000000000e+00
 1.254174947738647461e+00 1.082250010222196579e-02 0.000000000000000000e+00
 1.274649977684020996e+00 1.050500012934207916e-02 0.000000000000000000e+00
 1.295125007629394531e+00 1.018750015646219254e-02 0.000000000000000000e+00
 1.315600037574768066e+00 9.870000183582305908e-03 0.000000000000000000e+00
 1.336074948310852051e+00 9.552500210702419281e-03 0.000000000000000000e+00
 1.356549978256225586e+00 9.235000237822532654e-03 0.000000000000000000e+00
 1.377025008201599121e+00 8.917500264942646027e-03 0.000000000000000000e+00
 1.397500038146972656e+00 8.600000292062759399e-03 0.000000000000000000e+00
 1.417974948883056641e+00 8.282500319182872772e-03 0.000000000000000000e+00
 1.438449978828430176e+00 7.965000346302986145e-03 0.000000000000000000e+00
 1.458925008773803711e+00 7.647499907761812210e-03 0.000000000000000000e+00
 1.479400038719177246e+00 7.329999934881925583e-03 0.000000000000000000e+00
 1.499874949455261230e+00 7.012499962002038956e-03 0.000000000000000000e+00
 1.520349979400634766e+00 6.694999989122152328e-03 0.000000000000000000e+00
 1.540825009346008301e+00 6.377500016242265701e-03 0.000000000000000000e+00
 1.561300039291381836e+00 6.060000043362379074e-03 0.000000000000000000e+00
 1.581774950027465820e+00 5.742500070482492447e-03 0.000000000000000000e+00
 1.602249979972839355e+00 5.425000097602605820e-03 0.000000000000000000e+00
 1.622725009918212891e+00 5.107500124722719193e-03 0.000000000000000000e+00
 1.643200039863586426e+00 4.790000151842832565e-03 0.000000000000000000e+00
 1.663674950599670410e+00 4.472500178962945938e-03 0.000000000000000000e+00
 1.684149980545043945e+00 4.155000206083059311e-03 0.000000000000000000e+00
 1.704625010490417480e+00 3.837500000372529030e-03 0.000000000000000000e+00
 1.725100040435791016e+00 3.520000027492642403e-03 0.000000000000000000e+00
 1.745574951171875000e+00 3.202500054612755775e-03 0.000000000000000000e+00
 1.766049981117248535e+00 2.885000081732869148e-03 0.000000000000000000e+00
 1.786525011062622070e+00 2.567500108852982521e-03 0.000000000000000000e+00
 1.807000041007995605e+00 2.249999903142452240e-03 0.000000000000000000e+00
 9.879999756813049316e-01 2.989999949932098389e-02 0.000000000000000000e+00
 1.008474946022033691e+00 2.926499955356121063e-02 0.000000000000000000e+00
 1.028949975967407227e+00 2.862999960780143738e-02 0.000000000000000000e+00
 1.049425005912780762e+00 2.799499966204166412e-02 0.000000000000000000e+00
 1.069900035858154297e+00 2.735999971628189087e-02 0.000000000000000000e+00
 1.090374946594238281e+00 2.672499977052211761e-02 0.000000000000000000e+00
 1.110849976539611816e+00 2.608999982476234436e-02 0.000000000000000000e+00
 1.131325006484985352e+00 2.545499987900257111e-02 0.000000000000000000e+00
 1.151800036430358887e+00 2.481999993324279785e-02 0.000000000000000000e+00
 1.172274947166442871e+00 2.418499998748302460e-02 0.000000000000000000e+00
 1.192749977111816406e+00 2.355000004172325134e-02 0.000000000000000000e+00
 1.213225007057189941e+00 2.291500009596347809e-02 0.000000000000000000e+00
 1.233700037002563477e+00 2.228000015020370483e-02 0.000000000000000000e+00
 1.254174947738647461e+00 2.164500020444393158e-02 0.000000000000000000e+00
 1.274649977684020996e+00 2.101000025868415833e-02 0.000000000000000000e+00
 1.295125007629394531e+00 2.037500031292438507e-02 0.000000000000000000e+00
 1.315600037574768066e+00 1.974000036716461182e-02 0.000000000000000000e+00
 1.336074948310852051e+00 1.910500042140483856e-02 0.000000000000000000e+00
 1.356549978256225586e+00 1.847000047564506531e-02 0.000000000000000000e+00
 1.377025008201599121e+00 1.783500052988529205e-02 0.000000000000000000e+00
 1.397500038146972656e+00 1.720000058412551880e-02 0.000000000000000000e+00
 1.417974948883056641e+00 1.656500063836574554e-02 0.000000000000000000e+00
 1.438449978828430176e+00 1.593000069260597229e-02 0.000000000000000000e+00
 1.458925008773803711e+00 1.529499981552362442e-02 0.000000000000000000e+00
 1.479400038719177246e+00 1.465999986976385117e-02 0.000000000000000000e+00
 1.499874949455261230e+00 1.402499992400407791e-02 0.000000000000000000e+00
 1.520349979400634766e+00 1.338999997824430466e-02 0.000000000000000000e+00
 1.540825009346008301e+00 1.275500003248453140e-02 0.000000000000000000e+00
 1.561300039291381836e+00 1.212000008672475815e-02 0.000000000000000000e+00
 1.581774950027465820e+00 1.148500014096498489e-02 0.000000000000000000e+00
 1.602249979972839355e+00 1.085000019520521164e-02 0.000000000000000000e+00
 1.622725009918212891e+00 1.021500024944543839e-02 0.000000000000000000e+00
 1.643200039863586426e+00 9.580000303685665131e-03 0.000000000000000000e+00
 1.663674950599670410e+00 8.945000357925891876e-03 0.000000000000000000e+00
 1.684149980545043945e+00 8.310000412166118622e-03 0.000000000000000000e+00
 1.704625010490417480e+00 7.675000000745058060e-03 0.000000000000000000e+00
 1.725100040435791016e+00 7.040000054985284805e-03 0.000000000000000000e+00
 1.745574951171875000e+00 6.405000109225511551e-03 0.000000000000000000e+00
 1.766049981117248535e+00 5.770000163465738297e-03 0.000000000000000000e+00
 1.786525011062622070e+00 5.135000217705965042e-03 0.000000000000000000e+00
 1.807000041007995605e+00 4.499999806284904480e-03 0.000000000000000000e+00
 9.879999756813049316e-01 4.484999924898147583e-02 0.000000000000000000e+00
 1.008474946022033691e+00 4.389749839901924133e-02 0.000000000000000000e+00
 1.028949975967407227e+00 4.294500127434730530e-02 0.000000000000000000e+00
 1.049425005912780762e+00 4.199250042438507080e-02 0.000000000000000000e+00
 1.069900035858154297e+00 4.103999957442283630e-02 0.000000000000000000e+00
[...]
<CellData>
 <DataArray Name="pos.x" type="Float32" NumberOfComponents="1" format="ascii">
 9.982008746725249404e-01
 1.018675071249675712e+00
 1.039149231788080829e+00
 1.059623353807255919e+00
 1.080097434593689565e+00
 1.100571471172965055e+00
 1.121045460277427797e+00
 1.141519398309304156e+00
 1.161993281297832858e+00
 1.182467104849685535e+00
 1.202940864091264883e+00
 1.223414553601068766e+00
 1.243888167330674310e+00
 1.264361698511306198e+00
 1.284835139543314853e+00
 1.305308481864647430e+00
 1.325781715793522553e+00
 1.346254830339331798e+00
 1.366727812973424161e+00
 1.387200649350647241e+00
 1.407673322967561980e+00
 1.428145814740731323e+00
 1.448618102482002845e+00
 1.469090160240324794e+00
 1.489561957469093922e+00
 1.510033457960960446e+00
 1.530504618473889522e+00
 1.550975386934686062e+00
 1.571445700063538675e+00
 1.591915480188039078e+00
 1.612384630904348803e+00
 1.632853031068459915e+00
 1.653320526315767536e+00
 1.673786916835714011e+00
 1.694251939318113465e+00
 1.714715239551484194e+00
 1.735176329490514258e+00
 1.755634517453815713e+00
 1.776088789546075075e+00
 1.796537597301507638e+00
 9.982008746725238302e-01
 1.018675071249685260e+00
 1.039149231788073280e+00
 1.059623353807256141e+00
 1.080097434593679129e+00
 1.100571471172963056e+00
 1.121045460277431127e+00
 1.141519398309295719e+00
 1.161993281297821312e+00
 1.182467104849688866e+00
 1.202940864091247342e+00
 1.223414553601053223e+00
 1.243888167330690520e+00
 1.264361698511324628e+00
 1.284835139543307525e+00
 1.305308481864648762e+00
 1.325781715793538096e+00
 1.346254830339314035e+00
 1.366727812973425271e+00
 1.387200649350640802e+00
 1.407673322967582408e+00
 1.428145814740713559e+00
 1.448618102481986858e+00
 1.469090160240361653e+00
 1.489561957469069942e+00
 1.510033457960976433e+00
 1.530504618473874867e+00
 1.550975386934712263e+00
 1.571445700063502926e+00
 1.591915480188047738e+00
 1.612384630904351912e+00
 1.632853031068459249e+00
 1.653320526315814387e+00
 1.673786916835686256e+00
 1.694251939318131450e+00
 1.714715239551482640e+00
 1.735176329490502045e+00
 1.755634517453796617e+00
 1.776088789546116598e+00
 1.796537597301485434e+00
 9.982008746725227200e-01
 1.018675071249677266e+00
 1.039149231788075722e+00
 1.059623353807251700e+00
 1.080097434593688455e+00
 1.100571471172962390e+00
 1.121045460277433126e+00
 1.141519398309299715e+00
 1.161993281297819092e+00
 1.182467104849693085e+00
 1.202940864091254447e+00
 1.223414553601064991e+00
 1.243888167330670314e+00
 1.264361698511299981e+00
 1.284835139543315297e+00
 1.305308481864650982e+00
 1.325781715793541204e+00
 1.346254830339326025e+00
 1.366727812973425715e+00
 1.387200649350648574e+00
 1.407673322967574414e+00
 1.428145814740734654e+00
 1.448618102481966874e+00
 1.469090160240346998e+00
 1.489561957469041298e+00
 1.510033457960963554e+00
 1.530504618473891298e+00
 1.550975386934666522e+00
 1.571445700063562878e+00
 1.591915480188039966e+00
 1.612384630904320382e+00
 1.632853031068470129e+00
 1.653320526315830374e+00
 1.673786916835692695e+00
 1.694251939318132560e+00
 1.714715239551463100e+00
 1.735176329490508040e+00
 1.755634517453799948e+00
 1.776088789546097502e+00
 1.796537597301539613e+00
 9.982008746725236081e-01
 1.018675071249666608e+00
 1.039149231788085048e+00
 1.059623353807245261e+00
 1.080097434593694228e+00
 1.100571471172953508e+00
 1.121045460277424688e+00
 1.141519398309300604e+00
 1.161993281297829972e+00
 1.182467104849673767e+00
 1.202940864091254003e+00
 1.223414553601061217e+00
 1.243888167330684524e+00
 1.264361698511296872e+00
 1.284835139543306859e+00
 1.305308481864635661e+00
 1.325781715793555859e+00
 1.346254830339299380e+00
 1.366727812973417278e+00
 1.387200649350668558e+00
 1.407673322967571528e+00
 1.428145814740722885e+00
 1.448618102482006842e+00
 1.469090160240361209e+00
 1.489561957469075049e+00
 1.510033457960948677e+00
 1.530504618473903955e+00
 1.550975386934656086e+00
 1.571445700063525797e+00
 1.591915480188043297e+00
 1.612384630904351246e+00
 1.632853031068436156e+00
 1.653320526315788630e+00
 1.673786916835706462e+00
 1.694251939318128120e+00
 1.714715239551468429e+00
 1.735176329490488722e+00
 1.755634517453811494e+00
 1.776088789546081959e+00
 1.796537597301472333e+00
 9.982008746725283821e-01
 1.018675071249675046e+00
 1.039149231788080385e+00
 1.059623353807247925e+00
 1.080097434593688899e+00
 1.100571471172967497e+00
 1.121045460277417805e+00
 1.141519398309306821e+00
 1.161993281297830194e+00
 1.182467104849692419e+00
 1.202940864091256890e+00
 1.223414553601068544e+00
 1.243888167330683192e+00
 1.264361698511301535e+00
 1.284835139543321514e+00
 1.305308481864630776e+00
 1.325781715793566073e+00
 1.346254830339302933e+00
 1.366727812973406619e+00
 1.387200649350650572e+00
 1.407673322967560869e+00
 1.428145814740736652e+00
 1.448618102482006398e+00
 1.469090160240345444e+00
 1.489561957469078379e+00
 1.510033457960952674e+00
 1.530504618473892409e+00
 1.550975386934696498e+00
 1.571445700063522244e+00
 1.591915480188049736e+00
 1.612384630904360572e+00
 1.632853031068446592e+00
 1.653320526315790184e+00
 1.673786916835656502e+00
 1.694251939318103028e+00
 1.714715239551467763e+00
 1.735176329490543568e+00
 1.755634517453799281e+00
 1.776088789546066415e+00
 1.796537597301547162e+00
 9.982008746725249404e-01
 1.018675071249677710e+00
 1.039149231788082384e+00
 1.059623353807249924e+00
 1.080097434593680683e+00
 1.100571471172956395e+00
 1.121045460277428685e+00
 1.141519398309316369e+00
 1.161993281297828418e+00
 1.182467104849691752e+00
 1.202940864091263995e+00
 1.223414553601053445e+00
 1.243888167330700734e+00
 1.264361698511294874e+00
 1.284835139543338833e+00
 1.305308481864626780e+00
 1.325781715793534099e+00
 1.346254830339331576e+00
 1.366727812973416167e+00
 1.387200649350668558e+00
 1.407673322967563090e+00
 1.428145814740724884e+00
 1.448618102481970871e+00
 1.469090160240359655e+00
 1.489561957469043740e+00
 1.510033457960970660e+00
 1.530504618473911282e+00
 1.550975386934676070e+00
 1.571445700063522244e+00
 1.591915480188069498e+00
 1.612384630904359462e+00
 1.632853031068418614e+00
 1.653320526315790628e+00
 1.673786916835720673e+00
 1.694251939318109912e+00
 1.714715239551460213e+00
 1.735176329490553782e+00
 1.755634517453803944e+00
 1.776088789546057756e+00
 1.796537597301530065e+00
 9.982008746725263837e-01
 1.018675071249679265e+00
 1.039149231788069949e+00
 1.059623353807263912e+00
 1.080097434593689565e+00
 1.100571471172959059e+00
 1.121045460277430683e+00
 1.141519398309295275e+00
 1.161993281297836411e+00
 1.182467104849676209e+00
 1.202940864091250894e+00
 1.223414553601064769e+00
 1.243888167330682748e+00
 1.264361698511291543e+00
 1.284835139543320404e+00
 1.305308481864636549e+00
 1.325781715793522331e+00
 1.346254830339336239e+00
 1.366727812973401956e+00
 1.387200649350678328e+00
 1.407673322967573748e+00
 1.428145814740720221e+00
 1.448618102481990411e+00
 1.469090160240343002e+00
 1.489561957469071718e+00
 1.510033457960969328e+00
 1.530504618473905509e+00
 1.550975386934660083e+00
 1.571445700063549111e+00
 1.591915480188047960e+00
 1.612384630904328375e+00
 1.632853031068489003e+00
 1.653320526315760208e+00
 1.673786916835684702e+00
 1.694251939318109468e+00
 1.714715239551472203e+00
 1.735176329490511593e+00
 1.755634517453797727e+00
 1.776088789546043989e+00
 1.796537597301543387e+00
 9.982008746725311576e-01
 1.018675071249675490e+00
 1.039149231788088379e+00
 1.059623353807249035e+00
 1.080097434593677574e+00
 1.100571471172969273e+00
 1.121045460277418915e+00
 1.141519398309290390e+00
 1.161993281297841962e+00
 1.182467104849684203e+00
 1.202940864091261775e+00
 1.223414553601054111e+00
 1.243888167330677197e+00
 1.264361698511297316e+00
 1.284835139543327065e+00
 1.305308481864658754e+00
 1.325781715793539872e+00
 1.346254830339312036e+00
 1.366727812973432155e+00
 1.387200649350656789e+00
 1.407673322967574414e+00
 1.428145814740733766e+00
 1.448618102481965320e+00
 1.469090160240347220e+00
 1.489561957469065945e+00
 1.510033457960965775e+00
 1.530504618473911282e+00
 1.550975386934678291e+00
 1.571445700063510253e+00
 1.591915480188078380e+00
 1.612384630904325933e+00
 1.632853031068416172e+00
 1.653320526315782413e+00
 1.673786916835697802e+00
 1.694251939318077493e+00
 1.714715239551480863e+00
 1.735176329490516922e+00
 1.755634517453825039e+00
 1.776088789546043989e+00
 1.796537597301495870e+00
 9.982008746725243853e-01
 1.018675071249680375e+00
 1.039149231788071059e+00
 1.059623353807244373e+00
 1.080097434593675354e+00
 1.100571471172985927e+00
 1.121045460277418027e+00
 1.141519398309307487e+00
 1.161993281297812652e+00
 1.182467104849682427e+00
 1.202940864091236683e+00
 1.223414553601062549e+00
 1.243888167330667427e+00
 1.264361698511312637e+00
 1.284835139543291538e+00
 1.305308481864620784e+00
 1.325781715793567406e+00
 1.346254830339327135e+00
 1.366727812973406619e+00
 1.387200649350658566e+00
 1.407673322967568197e+00
 1.428145814740725994e+00
 1.448618102481977754e+00
 1.469090160240363208e+00
 1.489561957469070386e+00
 1.510033457960958225e+00
 1.530504618473898182e+00
 1.550975386934692057e+00
 1.571445700063552886e+00
 1.591915480188034193e+00
 1.612384630904353910e+00
 1.632853031068442817e+00
 1.653320526315791517e+00
 1.673786916835671379e+00
 1.694251939318123679e+00
 1.714715239551480863e+00
 1.735176329490504266e+00
 1.755634517453822596e+00
 1.776088789546009572e+00
 1.796537597301539391e+00
 9.982008746725320458e-01
 1.018675071249683262e+00
 1.039149231788053740e+00
 1.059623353807254142e+00
 1.080097434593694228e+00
 1.100571471172948401e+00
 1.121045460277443784e+00
 1.141519398309313704e+00
 1.161993281297816427e+00
 1.182467104849687978e+00
 1.202940864091259110e+00
 1.223414553601054999e+00
 1.243888167330680750e+00
 1.264361698511324850e+00
 1.284835139543300642e+00
 1.305308481864649872e+00
 1.325781715793541427e+00
 1.346254830339330022e+00
 1.366727812973401956e+00
 1.387200649350650350e+00
 1.407673322967567975e+00
 1.428145814740722885e+00
 1.448618102481954439e+00
 1.469090160240355880e+00
 1.489561957469083486e+00
 1.510033457960954673e+00
 1.530504618473883305e+00
 1.550975386934689171e+00
 1.571445700063509365e+00
 1.591915480188016874e+00
 1.612384630904371230e+00
 1.632853031068469907e+00
 1.653320526315785521e+00
 1.673786916835700689e+00
 1.694251939318121014e+00
 1.714715239551473314e+00
 1.735176329490526026e+00
 1.755634517453794619e+00
 1.776088789546099278e+00
 1.796537597301495870e+00
 9.982008746725326009e-01
 1.018675071249682818e+00
 1.039149231788075056e+00
 1.059623353807246149e+00
 1.080097434593689565e+00
 1.100571471172963278e+00
 1.121045460277426908e+00
 1.141519398309296163e+00
 1.161993281297811098e+00
 1.182467104849698636e+00
 1.202940864091257556e+00
 1.223414553601069210e+00
 1.243888167330675198e+00
 1.264361698511297094e+00
 1.284835139543312188e+00
 1.305308481864622339e+00
 1.325781715793545645e+00
 1.346254830339322472e+00
 1.366727812973414835e+00
 1.387200649350630144e+00
 1.407673322967578411e+00
 1.428145814740734210e+00
 1.448618102481967318e+00
 1.469090160240330123e+00
 1.489561957469052178e+00
 1.510033457960938019e+00
 1.530504618473905065e+00
 1.550975386934696498e+00
 1.571445700063538231e+00
 1.591915480188065279e+00
 1.612384630904333704e+00
 1.632853031068479677e+00
 1.653320526315800842e+00
 1.673786916835713789e+00
 1.694251939318095923e+00
 1.714715239551425130e+00
 1.735176329490484060e+00
 1.755634517453779520e+00
 1.776088789546023339e+00
 1.796537597301460787e+00
 9.982008746725263837e-01
 1.018675071249676378e+00
 1.039149231788077055e+00
 1.059623353807268575e+00
 1.080097434593692896e+00
 1.100571471172966165e+00
 1.121045460277428463e+00
 1.141519398309312150e+00
 1.161993281297815539e+00
 1.182467104849698192e+00
 1.202940864091246675e+00
 1.223414553601049892e+00
 1.243888167330676309e+00
 1.264361698511303755e+00
 1.284835139543320182e+00
 1.305308481864614123e+00
 1.325781715793539872e+00
 1.346254830339331576e+00
 1.366727812973414613e+00
 1.387200649350656345e+00
 1.407673322967570639e+00
 1.428145814740718222e+00
 1.448618102481976200e+00
 1.469090160240316578e+00
 1.489561957469103914e+00
 1.510033457960996861e+00
 1.530504618473867984e+00
 1.550975386934678291e+00
 1.571445700063501372e+00
 1.591915480188043075e+00
 1.612384630904323712e+00
 1.632853031068479677e+00
 1.653320526315758654e+00
 1.673786916835707572e+00
 1.694251939318110800e+00
 1.714715239551500625e+00
 1.735176329490524250e+00
 1.755634517453841026e+00
 1.776088789546081959e+00
 1.796537597301606226e+00
 9.982008746725278270e-01
 1.018675071249671049e+00
 1.039149231788073946e+00
 1.059623353807261914e+00
 1.080097434593671357e+00
 1.100571471172977045e+00
 1.121045460277408479e+00
 1.141519398309318811e+00
 1.161993281297832858e+00
 1.182467104849688644e+00
 1.202940864091252893e+00
 1.223414553601065879e+00
 1.243888167330658767e+00
 1.264361698511303755e+00
 1.284835139543333504e+00
 1.305308481864639214e+00
 1.325781715793545645e+00
 1.346254830339337794e+00
 1.366727812973398848e+00
 1.387200649350641246e+00
 1.407673322967584850e+00
 1.428145814740702457e+00
 1.448618102481995740e+00
 1.469090160240358101e+00
 1.489561957469060838e+00
 1.510033457960979320e+00
 1.530504618473888856e+00
 1.550975386934705602e+00
 1.571445700063517137e+00
 1.591915480188084375e+00
 1.612384630904346583e+00
 1.632853031068443261e+00
 1.653320526315773531e+00
 1.673786916835664718e+00
 1.694251939318195621e+00
 1.714715239551420689e+00
 1.735176329490564662e+00
 1.755634517453803944e+00
 1.776088789546047320e+00
 1.796537597301472555e+00
 9.982008746725344883e-01
 1.018675071249681929e+00
 1.039149231788072392e+00
 1.059623353807248813e+00
 1.080097434593696226e+00
 1.100571471172971272e+00
 1.121045460277422245e+00
 1.141519398309301270e+00
 1.161993281297828196e+00
 1.182467104849687312e+00
 1.202940864091245787e+00
 1.223414553601062105e+00
 1.243888167330667205e+00
 1.264361698511311527e+00
 1.284835139543310190e+00
 1.305308481864642101e+00
 1.325781715793528326e+00
 1.346254830339343789e+00
 1.366727812973424161e+00
 1.387200649350666337e+00
 1.407673322967563090e+00
 1.428145814740742647e+00
 1.448618102481987746e+00
 1.469090160240354326e+00
 1.489561957469043518e+00
 1.510033457960984427e+00
 1.530504618473898848e+00
 1.550975386934699607e+00
 1.571445700063546225e+00
 1.591915480188022869e+00
 1.612384630904318383e+00
 1.632853031068443261e+00
 1.653320526315776196e+00
 1.673786916835690919e+00
 1.694251939318053068e+00
 1.714715239551530379e+00
 1.735176329490448754e+00
 1.755634517453847021e+00
 1.776088789546040436e+00
 1.796537597301527622e+00
 9.982008746725258286e-01
 1.018675071249672826e+00
 1.039149231788074168e+00
 1.059623353807251034e+00
 1.080097434593690009e+00
 1.100571471172961502e+00
 1.121045460277422690e+00
 1.141519398309295719e+00
 1.161993281297832858e+00
 1.182467104849683981e+00
 1.202940864091242457e+00
 1.223414553601083865e+00
 1.243888167330687411e+00
 1.264361698511293097e+00
 1.284835139543314853e+00
 1.305308481864636549e+00
 1.325781715793534099e+00
 1.346254830339313369e+00
 1.366727812973439704e+00
 1.387200649350657455e+00
 1.407673322967570639e+00
 1.428145814740709341e+00
 1.448618102481974645e+00
 1.469090160240337672e+00
 1.489561957469094367e+00
 1.510033457960944236e+00
 1.530504618473897516e+00
 1.550975386934676958e+00
 1.571445700063510920e+00
 1.591915480188016874e+00
 1.612384630904370342e+00
 1.632853031068434380e+00
 1.653320526315809946e+00
 1.673786916835677818e+00
 1.694251939318117239e+00
 1.714715239551486414e+00
 1.735176329490497382e+00
 1.755634517453815713e+00
 1.776088789546151014e+00
 1.796537597301409273e+00
 9.982008746725287152e-01
 1.018675071249673714e+00
 1.039149231788061067e+00
 1.059623353807256141e+00
 1.080097434593687344e+00
 1.100571471172973714e+00
 1.121045460277410255e+00
 1.141519398309310818e+00
 1.161993281297828640e+00
 1.182467104849699302e+00
 1.202940864091240236e+00
 1.223414553601070098e+00
 1.243888167330680083e+00
 1.264361698511308418e+00
 1.284835139543317073e+00
 1.305308481864619674e+00
 1.325781715793542759e+00
 1.346254830339298270e+00
 1.366727812973421274e+00
 1.387200649350664339e+00
 1.407673322967570195e+00
 1.428145814740727770e+00
 1.448618102481973979e+00
 1.469090160240343668e+00
 1.489561957469065945e+00
 1.510033457960968883e+00
 1.530504618473863543e+00
 1.550975386934702716e+00
 1.571445700063512474e+00
 1.591915480188032861e+00
 1.612384630904313942e+00
 1.632853031068482785e+00
 1.653320526315773753e+00
 1.673786916835691363e+00
 1.694251939318135225e+00
 1.714715239551488635e+00
 1.735176329490574654e+00
 1.755634517453834365e+00
 1.776088789546095725e+00
 1.796537597301535838e+00
 9.982008746725334891e-01
 1.018675071249671049e+00
 1.039149231788086825e+00
 1.059623353807255697e+00
 1.080097434593686456e+00
 1.100571471172973048e+00
 1.121045460277421135e+00
 1.141519398309302380e+00
 1.161993281297829306e+00
 1.182467104849706407e+00
 1.202940864091251560e+00
 1.223414553601059662e+00
 1.243888167330686079e+00
 1.264361698511314192e+00
 1.284835139543320404e+00
 1.305308481864638992e+00
 1.325781715793539872e+00
 1.346254830339319586e+00
 1.366727812973440148e+00
 1.387200649350622816e+00
 1.407673322967570639e+00
 1.428145814740745756e+00
 1.448618102481953773e+00
 1.469090160240367871e+00
 1.489561957469073716e+00
 1.510033457960969772e+00
 1.530504618473900624e+00
 1.550975386934746458e+00
 1.571445700063593298e+00
 1.591915480188018872e+00
 1.612384630904381000e+00
 1.632853031068424388e+00
 1.653320526315803507e+00
 1.673786916835710459e+00
 1.694251939318105693e+00
 1.714715239551440451e+00
 1.735176329490541125e+00
 1.755634517453852794e+00
 1.776088789546130364e+00
 1.796537597301495870e+00
 9.982008746725400394e-01
 1.018675071249661945e+00
 1.039149231788069949e+00
 1.059623353807259694e+00
 1.080097434593688677e+00
 1.100571471172963722e+00
 1.121045460277430905e+00
 1.141519398309302380e+00
 1.161993281297810432e+00
 1.182467104849701744e+00
 1.202940864091242457e+00
 1.223414553601080090e+00
 1.243888167330683192e+00
 1.264361698511306198e+00
 1.284835139543310190e+00
 1.305308481864619896e+00
 1.325781715793531212e+00
 1.346254830339331576e+00
 1.366727812973434597e+00
 1.387200649350656345e+00
 1.407673322967557317e+00
 1.428145814740724884e+00
 1.448618102481978642e+00
 1.469090160240337006e+00
 1.489561957469039299e+00
 1.510033457960977099e+00
 1.530504618473874867e+00
 1.550975386934664746e+00
 1.571445700063502704e+00
 1.591915480188024867e+00
 1.612384630904338145e+00
 1.632853031068447258e+00
 1.653320526315822159e+00
 1.673786916835697580e+00
 1.694251939318050404e+00
 1.714715239551455772e+00
 1.735176329490436986e+00
 1.755634517453883214e+00
 1.776088789546095725e+00
 1.796537597301456346e+00
 9.982008746725354875e-01
 1.018675071249673048e+00
 1.039149231788053296e+00
 1.059623353807248813e+00
 1.080097434593692007e+00
 1.100571471172960170e+00
 1.121045460277412475e+00
 1.141519398309318811e+00
 1.161993281297809100e+00
 1.182467104849685979e+00
 1.202940864091251560e+00
 1.223414553601075427e+00
 1.243888167330668981e+00
 1.264361698511301091e+00
 1.284835139543332838e+00
 1.305308481864630554e+00
 1.325781715793534099e+00
 1.346254830339298492e+00
 1.366727812973424161e+00
 1.387200649350652792e+00
 1.407673322967556873e+00
 1.428145814740724218e+00
 1.448618102482017278e+00
 1.469090160240350551e+00
 1.489561957469090370e+00
 1.510033457960956671e+00
 1.530504618473914391e+00
 1.550975386934692057e+00
 1.571445700063542006e+00
 1.591915480188063281e+00
 1.612384630904355243e+00
 1.632853031068471239e+00
 1.653320526315791961e+00
 1.673786916835671157e+00
 1.694251939318055733e+00
 1.714715239551479975e+00
 1.735176329490463853e+00
 1.755634517453773746e+00
 1.776088789546054425e+00
 1.796537597301512301e+00
 9.982008746725371529e-01
 1.018675071249671937e+00
 1.039149231788078831e+00
 1.059623353807252366e+00
 1.080097434593687789e+00