<VTKFile type="UnstructuredGrid" byte_order="BigEndian">
<UnstructuredGrid><Piece NumberOfPoints="861" NumberOfCells="800">
<Points>
 <DataArray type="Float32" NumberOfComponents="3" format="ascii">
 9.879999756813049316e-01 0.000000000000000000e+00 0.000000000000000000e+00
 1.008474946022033691e+00 0.000000000000000000e+00 0.000000000000000000e+00
 1.028949975967407227e+00 0.000000000000000000e+00 0.000000000000000000e+00
 1.049425005912780762e+00 0.000000000000000000e+00 0.000000000000000000e+00
 1.069900035858154297e+00 0.000000000000000000e+00 0.000000000000000000e+00
 1.090374946594238281e+00 0.000000000000000000e+00 0.000000000000000000e+00
 1.110849976539611816e+00 0.000000000000000000e+00 0.000000000000000000e+00
 1.131325006484985352e+00 0.000000000000000000e+00 0.000000000000000000e+00
 1.151800036430358887e+00 0.000000000000000000e+00 0.000000000000000000e+00
 1.172274947166442871e+00 0.000000000000000000e+00 0.000000000000000000e+00
 1.192749977111816406e+00 0.000000000000000000e+00 0.000000000000000000e+00
 1.213225007057189941e+00 0.000000000000000000e+00 0.000000000000000000e+00
 1.233700037002563477e+00 0.000000000000000000e+00 0.000000000000000000e+00
 1.254174947738647461e+00 0.000000000000000000e+00 0.000000000000000000e+00
 1.274649977684020996e+00 0.000000000000000000e+00 0.000000000000000000e+00
 1.295125007629394531e+00 0.000000000000000000e+00 0.000000000000000000e+00
 1.315600037574768066e+00 0.000000000000000000e+00 0.000000000000000000e+00
 1.336074948310852051e+00 0.000000000000000000e+00 0.000000000000000000e+00
 1.356549978256225586e+00 0.000000000000000000e+00 0.000000000000000000e+00
 1.377025008201599121e+00 0.000000000000000000e+00 0.000000000000000000e+00
 1.397500038146972656e+00 0.000000000000000000e+00 0.000000000000000000e+00
 1.417974948883056641e+00 0.000000000000000000e+00 0.000000000000000000e+00
 1.438449978828430176e+00 0.000000000000000000e+00 0.000000000000000000e+00
 1.458925008773803711e+00 0.000000000000000000e+00 0.000000000000000000e+00
 1.479400038719177246e+00 0.000000000000000000e+00 0.000000000000000000e+00
 1.499874949455261230e+00 0.000000000000000000e+00 0.000000000000000000e+00
 1.520349979400634766e+00 0.000000000000000000e+00 0.000000000000000000e+00
 1.540825009346008301e+00 0.000000000000000000e+00 0.000000000000000000e+00
 1.561300039291381836e+00 0.000000000000000000e+00 0.000000000000000000e+00
 1.581774950027465820e+00 0.000000000000000000e+00 0.000000000000000000e+00
 1.602249979972839355e+00 0.000000000000000000e+00 0.000000000000000000e+00
 1.622725009918212891e+00 0.000000000000000000e+00 0.000000000000000000e+00
 1.643200039863586426e+00 0.000000000000000000e+00 0.000000000000000000e+00
 1.663674950599670410e+00 0.000000000000000000e+00 0.000000000000000000e+00
 1.684149980545043945e+00 0.000000000000000000e+00 0.000000000000000000e+00
 1.704625010490417480e+00 0.000000000000000000e+00 0.000000000000000000e+00
 1.725100040435791016e+00 0.000000000000000000e+00 0.000000000000000000e+00
 1.745574951171875000e+00 0.000000000000000000e+00 0.000000000000000000e+00
 1.766049981117248535e+00 0.000000000000000000e+00 0.000000000000000000e+00
 1.786525011062622070e+00 0.000000000000000000e+00 0.000000000000000000e+00
 1.807000041007995605e+00 0.000000000000000000e+00 0.000000000000000000e+00
 9.879999756813049316e-01 1.494999974966049194e-02 0.000000000000000000e+00
 1.008474946022033691e+00 1.463249977678060532e-02 0.000000000000000000e+00
 1.028949975967407227e+00 1.431499980390071869e-02 0.000000000000000000e+00
 1.049425005912780762e+00 1.399749983102083206e-02 0.000000000000000000e+00
 1.069900035858154297e+00 1.367999985814094543e-02 0.000000000000000000e+00
 1.090374946594238281e+00 1.336249988526105881e-02 0.000000000000000000e+00
 1.110849976539611816e+00 1.304499991238117218e-02 0.000000000000000000e+00
 1.131325006484985352e+00 1.272749993950128555e-02 0.000000000000000000e+00
 1.151800036430358887e+00 1.240999996662139893e-02 0.000000000000000000e+00
 1.172274947166442871e+00 1.209249999374151230e-02 0.000000000000000000e+00
 1.192749977111816406e+00 1.177500002086162567e-02 0.000000000000000000e+00
 1.213225007057189941e+00 1.145750004798173904e-02 0.000000000000000000e+00
 1.233700037002563477e+00 1.114000007510185242e-02 0.000000000000000000e+00
 1.254174947738647461e+00 1.082250010222196579e-02 0.000000000000000000e+00
 1.274649977684020996e+00 1.050500012934207916e-02 0.000000000000000000e+00
 1.295125007629394531e+00 1.018750015646219254e-02 0.000000000000000000e+00
 1.315600037574768066e+00 9.870000183582305908e-03 0.000000000000000000e+00
 1.336074948310852051e+00 9.552500210702419281e-03 0.000000000000000000e+00
 1.356549978256225586e+00 9.235000237822532654e-03 0.000000000000000000e+00
 1.377025008201599121e+00 8.917500264942646027e-03 0.000000000000000000e+00
 1.397500038146972656e+00 8.600000292062759399e-03 0.000000000000000000e+00
 1.417974948883056641e+00 8.282500319182872772e-03 0.000000000000000000e+00
 1.438449978828430176e+00 7.965000346302986145e-03 0.000000000000000000e+00
 1.458925008773803711e+00 7.647499907761812210e-03 0.000000000000000000e+00
 1.479400038719177246e+00 7.329999934881925583e-03 0.000000000000000000e+00
 1.499874949455261230e+00 7.012499962002038956e-03 0.000000000000000000e+00
 1.520349979400634766e+00 6.694999989122152328e-03 0.000000000000000000e+00
 1.540825009346008301e+00 6.377500016242265701e-03 0.000000000000000000e+00
 1.561300039291381836e+00 6.060000043362379074e-03 0.000000000000000000e+00
 1.581774950027465820e+00 5.742500070482492447e-03 0.000000000000000000e+00
 1.602249979972839355e+00 5.425000097602605820e-03 0.000000000000000000e+00
 1.622725009918212891e+00 5.107500124722719193e-03 0.000000000000000000e+00
 1.643200039863586426e+00 4.790000151842832565e-03 0.000000000000000000e+00
 1.663674950599670410e+00 4.472500178962945938e-03 0.000000000000000000e+00
 1.684149980545043945e+00 4.155000206083059311e-03 0.000000000000000000e+00
 1.704625010490417480e+00 3.837500000372529030e-03 0.000000000000000000e+00
 1.725100040435791016e+00 3.520000027492642403e-03 0.000000000000000000e+00
 1.745574951171875000e+00 3.202500054612755775e-03 0.000000000000000000e+00
 1.766049981117248535e+00 2.885000081732869148e-03 0.000000000000000000e+00
 1.786525011062622070e+00 2.567500108852982521e-03 0.000000000000000000e+00
 1.807000041007995605e+00 2.249999903142452240e-03 0.000000000000000000e+00
 9.879999756813049316e-01 2.989999949932098389e-02 0.000000000000000000e+00
 1.008474946022033691e+00 2.926499955356121063e-02 0.000000000000000000e+00
 1.028949975967407227e+00 2.862999960780143738e-02 0.000000000000000000e+00
 1.049425005912780762e+00 2.799499966204166412e-02 0.000000000000000000e+00
 1.069900035858154297e+00 2.735999971628189087e-02 0.000000000000000000e+00
 1.090374946594238281e+00 2.672499977052211761e-02 0.000000000000000000e+00
 1.110849976539611816e+00 2.608999982476234436e-02 0.000000000000000000e+00
 1.131325006484985352e+00 2.545499987900257111e-02 0.000000000000000000e+00
 1.151800036430358887e+00 2.481999993324279785e-02 0.000000000000000000e+00
 1.172274947166442871e+00 2.418499998748302460e-02 0.000000000000000000e+00
 1.192749977111816406e+00 2.355000004172325134e-02 0.000000000000000000e+00
 1.213225007057189941e+00 2.291500009596347809e-02 0.000000000000000000e+00
 1.233700037002563477e+00 2.228000015020370483e-02 0.000000000000000000e+00
 1.254174947738647461e+00 2.164500020444393158e-02 0.000000000000000000e+00
 1.274649977684020996e+00 2.101000025868415833e-02 0.000000000000000000e+00
 1.295125007629394531e+00 2.037500031292438507e-02 0.000000000000000000e+00
 1.315600037574768066e+00 1.974000036716461182e-02 0.000000000000000000e+00
 1.336074948310852051e+00 1.910500042140483856e-02 0.000000000000000000e+00
 1.356549978256225586e+00 1.847000047564506531e-02 0.000000000000000000e+00
 1.377025008201599121e+00 1.783500052988529205e-02 0.000000000000000000e+00
 1.397500038146972656e+00 1.720000058412551880e-02 0.000000000000000000e+00
 1.417974948883056641e+00 1.656500063836574554e-02 0.000000000000000000e+00
 1.438449978828430176e+00 1.593000069260597229e-02 0.000000000000000000e+00
 1.458925008773803711e+00 1.529499981552362442e-02 0.000000000000000000e+00
 1.479400038719177246e+00 1.465999986976385117e-02 0.000000000000000000e+00
 1.499874949455261230e+00 1.402499992400407791e-02 0.000000000000000000e+00
 1.520349979400634766e+00 1.338999997824430466e-02 0.000000000000000000e+00
 1.540825009346008301e+00 1.275500003248453140e-02 0.000000000000000000e+00
 1.561300039291381836e+00 1.212000008672475815e-02 0.000000000000000000e+00
 1.581774950027465820e+00 1.148500014096498489e-02 0.000000000000000000e+00
 1.602249979972839355e+00 1.085000019520521164e-02 0.000000000000000000e+00
 1.622725009918212891e+00 1.021500024944543839e-02 0.000000000000000000e+00
 1.643200039863586426e+00 9.580000303685665131e-03 0.000000000000000000e+00
 1.663674950599670410e+00 8.945000357925891876e-03 0.000000000000000000e+00
 1.684149980545043945e+00 8.310000412166118622e-03 0.000000000000000000e+00
 1.704625010490417480e+00 7.675000000745058060e-03 0.000000000000000000e+00
 1.725100040435791016e+00 7.040000054985284805e-03 0.000000000000000000e+00
 1.745574951171875000e+00 6.405000109225511551e-03 0.000000000000000000e+00
 1.766049981117248535e+00 5.770000163465738297e-03 0.000000000000000000e+00
 1.786525011062622070e+00 5.135000217705965042e-03 0.000000000000000000e+00
 1.807000041007995605e+00 4.499999806284904480e-03 0.000000000000000000e+00
 9.879999756813049316e-01 4.484999924898147583e-02 0.000000000000000000e+00
 1.008474946022033691e+00 4.389749839901924133e-02 0.000000000000000000e+00
 1.028949975967407227e+00 4.294500127434730530e-02 0.000000000000000000e+00
 1.049425005912780762e+00 4.199250042438507080e-02 0.000000000000000000e+00
 1.069900035858154297e+00 4.103999957442283630e-02 0.000000000000000000e+00
[...]
<CellData>
 <DataArray Name="pos.x" type="Float32" NumberOfComponents="1" format="ascii">
 9.982008746725269388e-01
 1.018675071249671937e+00
 1.039149231788076833e+00
 1.059623353807255919e+00
 1.080097434593689565e+00
 1.100571471172965055e+00
 1.121045460277427797e+00
 1.141519398309302824e+00
 1.161993281297825975e+00
 1.182467104849685535e+00
 1.202940864091264883e+00
 1.223414553601068766e+00
 1.243888167330674532e+00
 1.264361698511306198e+00
 1.284835139543314408e+00
 1.305308481864653647e+00
 1.325781715793539872e+00
 1.346254830339313591e+00
 1.366727812973424383e+00
 1.387200649350647241e+00
 1.407673322967568419e+00
 1.428145814740731323e+00
 1.448618102481988190e+00
 1.469090160240340115e+00
 1.489561957469078379e+00
 1.510033457960958669e+00
 1.530504618473898182e+00
 1.550975386934676958e+00
 1.571445700063548223e+00
 1.591915480188039078e+00
 1.612384630904359462e+00
 1.632853031068488114e+00
 1.653320526315737116e+00
 1.673786916835700911e+00
 1.694251939318127453e+00
 1.714715239551468651e+00
 1.735176329490508929e+00
 1.755634517453791288e+00
 1.776088789546085733e+00
 1.796537597301495870e+00
 9.982008746725237192e-01
 1.018675071249683040e+00
 1.039149231788071281e+00
 1.059623353807258139e+00
 1.080097434593680017e+00
 1.100571471172963056e+00
 1.121045460277423578e+00
 1.141519398309294608e+00
 1.161993281297832192e+00
 1.182467104849691086e+00
 1.202940864091253337e+00
 1.223414553601053223e+00
 1.243888167330690520e+00
 1.264361698511324628e+00
 1.284835139543306859e+00
 1.305308481864632553e+00
 1.325781715793554971e+00
 1.346254830339314035e+00
 1.366727812973425049e+00
 1.387200649350631920e+00
 1.407673322967589291e+00
 1.428145814740716446e+00
 1.448618102481989744e+00
 1.469090160240361653e+00
 1.489561957469069053e+00
 1.510033457960969105e+00
 1.530504618473891520e+00
 1.550975386934688283e+00
 1.571445700063511364e+00
 1.591915480188043963e+00
 1.612384630904330152e+00
 1.632853031068442595e+00
 1.653320526315801953e+00
 1.673786916835686034e+00
 1.694251939318130562e+00
 1.714715239551493742e+00
 1.735176329490520031e+00
 1.755634517453805721e+00
 1.776088789546088842e+00
 1.796537597301478772e+00
 9.982008746725208326e-01
 1.018675071249677044e+00
 1.039149231788067729e+00
 1.059623353807254142e+00
 1.080097434593683348e+00
 1.100571471172964610e+00
 1.121045460277431127e+00
 1.141519398309297051e+00
 1.161993281297822422e+00
 1.182467104849693973e+00
 1.202940864091253337e+00
 1.223414553601064991e+00
 1.243888167330670314e+00
 1.264361698511315968e+00
 1.284835139543304416e+00
 1.305308481864651426e+00
 1.325781715793529658e+00
 1.346254830339314035e+00
 1.366727812973413503e+00
 1.387200649350648796e+00
 1.407673322967588403e+00
 1.428145814740734654e+00
 1.448618102481976644e+00
 1.469090160240361875e+00
 1.489561957469081488e+00
 1.510033457960961112e+00
 1.530504618473888856e+00
 1.550975386934678513e+00
 1.571445700063543560e+00
 1.591915480188029974e+00
 1.612384630904350136e+00
 1.632853031068435712e+00
 1.653320526315811723e+00
 1.673786916835686034e+00
 1.694251939318114575e+00
 1.714715239551452663e+00
 1.735176329490529135e+00
 1.755634517453801058e+00
 1.776088789546087066e+00
 1.796537597301531397e+00
 9.982008746725213877e-01
 1.018675071249666608e+00
 1.039149231788089045e+00
 1.059623353807245261e+00
 1.080097434593698225e+00
 1.100571471172953508e+00
 1.121045460277424688e+00
 1.141519398309305044e+00
 1.161993281297821978e+00
 1.182467104849673767e+00
 1.202940864091254003e+00
 1.223414553601061217e+00
 1.243888167330684302e+00
 1.264361698511303533e+00
 1.284835139543318183e+00
 1.305308481864629222e+00
 1.325781715793531212e+00
 1.346254830339333131e+00
 1.366727812973407730e+00
 1.387200649350671222e+00
 1.407673322967568197e+00
 1.428145814740723107e+00
 1.448618102481993075e+00
 1.469090160240378085e+00
 1.489561957469057951e+00
 1.510033457960955783e+00
 1.530504618473898626e+00
 1.550975386934688061e+00
 1.571445700063549333e+00
 1.591915480188056398e+00
 1.612384630904329708e+00
 1.632853031068454586e+00
 1.653320526315790184e+00
 1.673786916835690919e+00
 1.694251939318115463e+00
 1.714715239551468651e+00
 1.735176329490503599e+00
 1.755634517453811494e+00
 1.776088789546025115e+00
 1.796537597301490319e+00
 9.982008746725263837e-01
 1.018675071249674824e+00
 1.039149231788074612e+00
 1.059623353807247925e+00
 1.080097434593688455e+00
 1.100571471172967497e+00
 1.121045460277418027e+00
 1.141519398309301492e+00
 1.161993281297822200e+00
 1.182467104849692419e+00
 1.202940864091253337e+00
 1.223414553601068544e+00
 1.243888167330683192e+00
 1.264361698511306642e+00
 1.284835139543315963e+00
 1.305308481864621450e+00
 1.325781715793542093e+00
 1.346254830339334019e+00
 1.366727812973394185e+00
 1.387200649350650794e+00
 1.407673322967575080e+00
 1.428145814740721553e+00
 1.448618102481979752e+00
 1.469090160240358545e+00
 1.489561957469070386e+00
 1.510033457960954673e+00
 1.530504618473901068e+00
 1.550975386934690725e+00
 1.571445700063548223e+00
 1.591915480188030418e+00
 1.612384630904350136e+00
 1.632853031068442595e+00
 1.653320526315791961e+00
 1.673786916835680927e+00
 1.694251939318115463e+00
 1.714715239551481529e+00
 1.735176329490521807e+00
 1.755634517453791954e+00
 1.776088789546066415e+00
 1.796537597301547162e+00
 9.982008746725172799e-01
 1.018675071249677710e+00
 1.039149231788082384e+00
 1.059623353807249924e+00
 1.080097434593680683e+00
 1.100571471172956395e+00
 1.121045460277428685e+00
 1.141519398309311928e+00
 1.161993281297818870e+00
 1.182467104849689310e+00
 1.202940864091263995e+00
 1.223414553601053445e+00
 1.243888167330676531e+00
 1.264361698511304199e+00
 1.284835139543317295e+00
 1.305308481864656533e+00
 1.325781715793529658e+00
 1.346254830339319142e+00
 1.366727812973415279e+00
 1.387200649350674775e+00
 1.407673322967552876e+00
 1.428145814740732655e+00
 1.448618102481972647e+00
 1.469090160240359655e+00
 1.489561957469055287e+00
 1.510033457960957559e+00
 1.530504618473909284e+00
 1.550975386934677847e+00
 1.571445700063546891e+00
 1.591915480188071053e+00
 1.612384630904322602e+00
 1.632853031068467242e+00
 1.653320526315791961e+00
 1.673786916835706018e+00
 1.694251939318123679e+00
 1.714715239551468651e+00
 1.735176329490501601e+00
 1.755634517453823706e+00
 1.776088789546057534e+00
 1.796537597301466560e+00
 9.982008746725240522e-01
 1.018675071249679265e+00
 1.039149231788069949e+00
 1.059623353807267909e+00
 1.080097434593689565e+00
 1.100571471172959059e+00
 1.121045460277430683e+00
 1.141519398309305267e+00
 1.161993281297826419e+00
 1.182467104849681316e+00
 1.202940864091273099e+00
 1.223414553601064769e+00
 1.243888167330687633e+00
 1.264361698511299537e+00
 1.284835139543311966e+00
 1.305308481864641212e+00
 1.325781715793532767e+00
 1.346254830339326913e+00
 1.366727812973415279e+00
 1.387200649350643245e+00
 1.407673322967588181e+00
 1.428145814740720221e+00
 1.448618102481975978e+00
 1.469090160240359655e+00
 1.489561957469085707e+00
 1.510033457960942460e+00
 1.530504618473911504e+00
 1.550975386934676958e+00
 1.571445700063517803e+00
 1.591915480188058174e+00
 1.612384630904344363e+00
 1.632853031068416616e+00
 1.653320526315759986e+00
 1.673786916835681149e+00
 1.694251939318112576e+00
 1.714715239551441783e+00
 1.735176329490528468e+00
 1.755634517453797505e+00
 1.776088789546030222e+00
 1.796537597301531619e+00
 9.982008746725287152e-01
 1.018675071249679487e+00
 1.039149231788071504e+00
 1.059623353807238377e+00
 1.080097434593677574e+00
 1.100571471172962390e+00
 1.121045460277426242e+00
 1.141519398309305933e+00
 1.161993281297830416e+00
 1.182467104849681316e+00
 1.202940864091256001e+00
 1.223414553601054111e+00
 1.243888167330677197e+00
 1.264361698511299537e+00
 1.284835139543331728e+00
 1.305308481864648318e+00
 1.325781715793526772e+00
 1.346254830339324027e+00
 1.366727812973427936e+00
 1.387200649350662340e+00
 1.407673322967563312e+00
 1.428145814740733766e+00
 1.448618102481970871e+00
 1.469090160240369647e+00
 1.489561957469065723e+00
 1.510033457960950676e+00
 1.530504618473900180e+00
 1.550975386934681177e+00
 1.571445700063526019e+00
 1.591915480188049070e+00
 1.612384630904290406e+00
 1.632853031068461913e+00
 1.653320526315782635e+00
 1.673786916835702909e+00
 1.694251939318104361e+00
 1.714715239551498849e+00
 1.735176329490506486e+00
 1.755634517453840360e+00
 1.776088789546085733e+00
 1.796537597301547606e+00
 9.982008746725314907e-01
 1.018675071249674380e+00
 1.039149231788083494e+00
 1.059623353807237933e+00
 1.080097434593677130e+00
 1.100571471172985927e+00
 1.121045460277422245e+00
 1.141519398309295497e+00
 1.161993281297823088e+00
 1.182467104849707518e+00
 1.202940864091257112e+00
 1.223414553601058330e+00
 1.243888167330672534e+00
 1.264361698511312637e+00
 1.284835139543312854e+00
 1.305308481864621228e+00
 1.325781715793535431e+00
 1.346254830339326913e+00
 1.366727812973410394e+00
 1.387200649350630144e+00
 1.407673322967555762e+00
 1.428145814740726882e+00
 1.448618102481974645e+00
 1.469090160240358323e+00
 1.489561957469093700e+00
 1.510033457960951120e+00
 1.530504618473905287e+00
 1.550975386934673850e+00
 1.571445700063548223e+00
 1.591915480188052179e+00
 1.612384630904353688e+00
 1.632853031068425720e+00
 1.653320526315813055e+00
 1.673786916835687810e+00
 1.694251939318115907e+00
 1.714715239551480863e+00
 1.735176329490465408e+00
 1.755634517453789067e+00
 1.776088789546033775e+00
 1.796537597301464562e+00
 9.982008746725304915e-01
 1.018675071249683040e+00
 1.039149231788070171e+00
 1.059623353807245261e+00
 1.080097434593685790e+00
 1.100571471172966831e+00
 1.121045460277441563e+00
 1.141519398309296829e+00
 1.161993281297826419e+00
 1.182467104849696637e+00
 1.202940864091267104e+00
 1.223414553601054999e+00
 1.243888167330679195e+00
 1.264361698511324850e+00
 1.284835139543308857e+00
 1.305308481864647652e+00
 1.325781715793564519e+00
 1.346254830339299380e+00
 1.366727812973408840e+00
 1.387200649350660564e+00
 1.407673322967555984e+00
 1.428145814740716668e+00
 1.448618102481978642e+00
 1.469090160240346776e+00
 1.489561957469083486e+00
 1.510033457960971104e+00
 1.530504618473901957e+00
 1.550975386934680067e+00
 1.571445700063562434e+00
 1.591915480188016874e+00
 1.612384630904350358e+00
 1.632853031068453697e+00
 1.653320526315785299e+00
 1.673786916835700911e+00
 1.694251939318121014e+00
 1.714715239551473536e+00
 1.735176329490534464e+00
 1.755634517453834142e+00
 1.776088789546130364e+00
 1.796537597301547606e+00
 9.982008746725358206e-01
 1.018675071249666830e+00
 1.039149231788086603e+00
 1.059623353807256585e+00
 1.080097434593687344e+00
 1.100571471172967719e+00
 1.121045460277426908e+00
 1.141519398309304378e+00
 1.161993281297810654e+00
 1.182467104849699524e+00
 1.202940864091260664e+00
 1.223414553601061883e+00
 1.243888167330680306e+00
 1.264361698511307530e+00
 1.284835139543319960e+00
 1.305308481864633663e+00
 1.325781715793545867e+00
 1.346254830339303821e+00
 1.366727812973437706e+00
 1.387200649350630144e+00
 1.407673322967570861e+00
 1.428145814740735320e+00
 1.448618102481980197e+00
 1.469090160240347442e+00
 1.489561957469097919e+00
 1.510033457960952008e+00
 1.530504618473883749e+00
 1.550975386934661859e+00
 1.571445700063534900e+00
 1.591915480188039966e+00
 1.612384630904367899e+00
 1.632853031068470795e+00
 1.653320526315800620e+00
 1.673786916835714011e+00
 1.694251939318095923e+00
 1.714715239551440229e+00
 1.735176329490526026e+00
 1.755634517453779297e+00
 1.776088789546106161e+00
 1.796537597301523848e+00
 9.982008746725192783e-01
 1.018675071249676378e+00
 1.039149231788080163e+00
 1.059623353807266133e+00
 1.080097434593691119e+00
 1.100571471172950622e+00
 1.121045460277428463e+00
 1.141519398309312150e+00
 1.161993281297815539e+00
 1.182467104849683981e+00
 1.202940864091268436e+00
 1.223414553601054999e+00
 1.243888167330670980e+00
 1.264361698511303533e+00
 1.284835139543314408e+00
 1.305308481864661863e+00
 1.325781715793554305e+00
 1.346254830339319142e+00
 1.366727812973430822e+00
 1.387200649350649240e+00
 1.407673322967584406e+00
 1.428145814740719333e+00
 1.448618102481975534e+00
 1.469090160240339227e+00
 1.489561957469092146e+00
 1.510033457960964665e+00
 1.530504618473855327e+00
 1.550975386934682954e+00
 1.571445700063546003e+00
 1.591915480188022869e+00
 1.612384630904334371e+00
 1.632853031068456806e+00
 1.653320526315764649e+00
 1.673786916835724226e+00
 1.694251939318110800e+00
 1.714715239551500403e+00
 1.735176329490524028e+00
 1.755634517453822818e+00
 1.776088789546047320e+00
 1.796537597301527622e+00
 9.982008746725263837e-01
 1.018675071249687036e+00
 1.039149231788063732e+00
 1.059623353807261914e+00
 1.080097434593678241e+00
 1.100571471172973936e+00
 1.121045460277408479e+00
 1.141519398309300826e+00
 1.161993281297823533e+00
 1.182467104849694639e+00
 1.202940864091255335e+00
 1.223414553601065879e+00
 1.243888167330658323e+00
 1.264361698511301091e+00
 1.284835139543314408e+00
 1.305308481864661863e+00
 1.325781715793545423e+00
 1.346254830339294939e+00
 1.366727812973434153e+00
 1.387200649350641024e+00
 1.407673322967570861e+00
 1.428145814740732211e+00
 1.448618102481989744e+00
 1.469090160240363874e+00
 1.489561957469089259e+00
 1.510033457960938907e+00
 1.530504618473889522e+00
 1.550975386934672517e+00
 1.571445700063576645e+00
 1.591915480188043963e+00
 1.612384630904327043e+00
 1.632853031068459915e+00
 1.653320526315779970e+00
 1.673786916835664718e+00
 1.694251939318137890e+00
 1.714715239551440229e+00
 1.735176329490498937e+00
 1.755634517453785293e+00
 1.776088789546088842e+00
 1.796537597301472555e+00
 9.982008746725306025e-01
 1.018675071249682818e+00
 1.039149231788085714e+00
 1.059623353807233714e+00
 1.080097434593697114e+00
 1.100571471172972604e+00
 1.121045460277426464e+00
 1.141519398309307709e+00
 1.161993281297823533e+00
 1.182467104849687312e+00
 1.202940864091245787e+00
 1.223414553601066990e+00
 1.243888167330672312e+00
 1.264361698511306420e+00
 1.284835139543298643e+00
 1.305308481864637216e+00
 1.325781715793545423e+00
 1.346254830339300934e+00
 1.366727812973424605e+00
 1.387200649350653459e+00
 1.407673322967577301e+00
 1.428145814740713115e+00
 1.448618102481976200e+00
 1.469090160240344556e+00
 1.489561957469076381e+00
 1.510033457960968883e+00
 1.530504618473881973e+00
 1.550975386934664746e+00
 1.571445700063533124e+00
 1.591915480188077492e+00
 1.612384630904359240e+00
 1.632853031068448590e+00
 1.653320526315776196e+00
 1.673786916835717120e+00
 1.694251939318153433e+00
 1.714715239551438231e+00
 1.735176329490498937e+00
 1.755634517453895871e+00
 1.776088789546061308e+00
 1.796537597301472555e+00
 9.982008746725269388e-01
 1.018675071249668829e+00
 1.039149231788080607e+00
 1.059623353807256363e+00
 1.080097434593686678e+00
 1.100571471172975713e+00
 1.121045460277422690e+00
 1.141519398309300382e+00
 1.161993281297836189e+00
 1.182467104849683981e+00
 1.202940864091254003e+00
 1.223414553601078758e+00
 1.243888167330677197e+00
 1.264361698511293319e+00
 1.284835139543322624e+00
 1.305308481864640102e+00
 1.325781715793528104e+00
 1.346254830339307151e+00
 1.366727812973453027e+00
 1.387200649350660564e+00
 1.407673322967570861e+00
 1.428145814740716668e+00
 1.448618102481981085e+00
 1.469090160240342113e+00
 1.489561957469066389e+00
 1.510033457960942460e+00
 1.530504618473930600e+00
 1.550975386934706934e+00
 1.571445700063536677e+00
 1.591915480188043075e+00
 1.612384630904329041e+00
 1.632853031068439709e+00
 1.653320526315798178e+00
 1.673786916835697802e+00
 1.694251939318117239e+00
 1.714715239551460213e+00
 1.735176329490508929e+00
 1.755634517453766863e+00
 1.776088789546054425e+00
 1.796537597301535838e+00
 9.982008746725287152e-01
 1.018675071249675712e+00
 1.039149231788079275e+00
 1.059623353807253698e+00
 1.080097434593674022e+00
 1.100571471172971494e+00
 1.121045460277429351e+00
 1.141519398309306599e+00
 1.161993281297824421e+00
 1.182467104849695749e+00
 1.202940864091254003e+00
 1.223414553601070764e+00
 1.243888167330680083e+00
 1.264361698511297760e+00
 1.284835139543314408e+00
 1.305308481864617010e+00
 1.325781715793554305e+00
 1.346254830339310260e+00
 1.366727812973412393e+00
 1.387200649350643911e+00
 1.407673322967548879e+00
 1.428145814740746866e+00
 1.448618102481973979e+00
 1.469090160240343002e+00
 1.489561957469101250e+00
 1.510033457960932468e+00
 1.530504618473873535e+00
 1.550975386934685840e+00
 1.571445700063534900e+00
 1.591915480188089260e+00
 1.612384630904313942e+00
 1.632853031068448590e+00
 1.653320526315791961e+00
 1.673786916835718008e+00
 1.694251939318192735e+00
 1.714715239551433790e+00
 1.735176329490497382e+00
 1.755634517453804166e+00
 1.776088789546095725e+00
 1.796537597301535838e+00
 9.982008746725304915e-01
 1.018675071249668829e+00
 1.039149231788086825e+00
 1.059623353807249702e+00
 1.080097434593682904e+00
 1.100571471172973048e+00
 1.121045460277421135e+00
 1.141519398309309485e+00
 1.161993281297826419e+00
 1.182467104849706407e+00
 1.202940864091251560e+00
 1.223414553601049892e+00
 1.243888167330686079e+00
 1.264361698511311527e+00
 1.284835139543309523e+00
 1.305308481864633441e+00
 1.325781715793551641e+00
 1.346254830339337349e+00
 1.366727812973434153e+00
 1.387200649350629700e+00
 1.407673322967563312e+00
 1.428145814740745756e+00
 1.448618102481995740e+00
 1.469090160240351217e+00
 1.489561957469073494e+00
 1.510033457960924252e+00
 1.530504618473890410e+00
 1.550975386934664746e+00
 1.571445700063509587e+00
 1.591915480188091259e+00
 1.612384630904335259e+00
 1.632853031068435712e+00
 1.653320526315863903e+00
 1.673786916835684480e+00
 1.694251939318105471e+00
 1.714715239551503956e+00
 1.735176329490497382e+00
 1.755634517453871446e+00
 1.776088789546075297e+00
 1.796537597301519407e+00
 9.982008746725288262e-01
 1.018675071249663056e+00
 1.039149231788083494e+00
 1.059623353807262136e+00
 1.080097434593685346e+00
 1.100571471172963722e+00
 1.121045460277435346e+00
 1.141519398309309929e+00
 1.161993281297821978e+00
 1.182467104849688644e+00
 1.202940864091240014e+00
 1.223414553601070764e+00
 1.243888167330693406e+00
 1.264361698511323739e+00
 1.284835139543311966e+00
 1.305308481864645209e+00
 1.325781715793551419e+00
 1.346254830339304043e+00
 1.366727812973428824e+00
 1.387200649350656345e+00
 1.407673322967550211e+00
 1.428145814740738651e+00
 1.448618102481988190e+00
 1.469090160240365650e+00
 1.489561957469058839e+00
 1.510033457960931580e+00
 1.530504618473929046e+00
 1.550975386934664746e+00
 1.571445700063489825e+00
 1.591915480188014875e+00
 1.612384630904323046e+00
 1.632853031068424388e+00
 1.653320526315773753e+00
 1.673786916835763305e+00
 1.694251939318136335e+00
 1.714715239551471315e+00
 1.735176329490531133e+00
 1.755634517453815713e+00
 1.776088789546095725e+00
 1.796537597301582467e+00
 9.982008746725304915e-01
 1.018675071249673048e+00
 1.039149231788063732e+00
 1.059623353807257029e+00
 1.080097434593686012e+00
 1.100571471172945959e+00
 1.121045460277419803e+00
 1.141519398309318811e+00
 1.161993281297817315e+00
 1.182467104849685979e+00
 1.202940864091267548e+00
 1.223414553601070320e+00
 1.243888167330669869e+00
 1.264361698511306420e+00
 1.284835139543325289e+00
 1.305308481864631442e+00
 1.325781715793528326e+00
 1.346254830339346675e+00
 1.366727812973411949e+00
 1.387200649350665671e+00
 1.407673322967563312e+00
 1.428145814740716446e+00
 1.448618102481958214e+00
 1.469090160240378973e+00
 1.489561957469082376e+00
 1.510033457960919367e+00
 1.530504618473900402e+00
 1.550975386934676958e+00
 1.571445700063583750e+00
 1.591915480188047072e+00
 1.612384630904391658e+00
 1.632853031068481453e+00
 1.653320526315791961e+00
 1.673786916835704019e+00
 1.694251939318083933e+00
 1.714715239551479975e+00
 1.735176329490524028e+00
 1.755634517453804166e+00
 1.776088789546116820e+00
 1.796537597301559153e+00
 9.982008746725258286e-01
 1.018675071249673048e+00
 1.039149231788074834e+00
 1.059623353807260582e+00
 1.080097434593687789e+00