<VTKFile type="UnstructuredGrid" byte_order="BigEndian">
<UnstructuredGrid><Piece NumberOfPoints="861" NumberOfCells="800">
<Points>
 <DataArray type="Float32" NumberOfComponents="3" format="ascii">
 1.807000041007995605e+00 0.000000000000000000e+00 0.000000000000000000e+00
 1.811825037002563477e+00 0.000000000000000000e+00 0.000000000000000000e+00
 1.816650032997131348e+00 0.000000000000000000e+00 0.000000000000000000e+00
 1.821475028991699219e+00 0.000000000000000000e+00 0.000000000000000000e+00
 1.826300024986267090e+00 0.000000000000000000e+00 0.000000000000000000e+00
 1.831125020980834961e+00 0.000000000000000000e+00 0.000000000000000000e+00
 1.835950016975402832e+00 0.000000000000000000e+00 0.000000000000000000e+00
 1.840775012969970703e+00 0.000000000000000000e+00 0.000000000000000000e+00
 1.845600008964538574e+00 0.000000000000000000e+00 0.000000000000000000e+00
 1.850425004959106445e+00 0.000000000000000000e+00 0.000000000000000000e+00
 1.855250000953674316e+00 0.000000000000000000e+00 0.000000000000000000e+00
 1.860074996948242188e+00 0.000000000000000000e+00 0.000000000000000000e+00
 1.864899992942810059e+00 0.000000000000000000e+00 0.000000000000000000e+00
 1.869724988937377930e+00 0.000000000000000000e+00 0.000000000000000000e+00
 1.874549984931945801e+00 0.000000000000000000e+00 0.000000000000000000e+00
 1.879374980926513672e+00 0.000000000000000000e+00 0.000000000000000000e+00
 1.884199976921081543e+00 0.000000000000000000e+00 0.000000000000000000e+00
 1.889024972915649414e+00 0.000000000000000000e+00 0.000000000000000000e+00
 1.893849968910217285e+00 0.000000000000000000e+00 0.000000000000000000e+00
 1.898674964904785156e+00 0.000000000000000000e+00 0.000000000000000000e+00
 1.903499960899353027e+00 0.000000000000000000e+00 0.000000000000000000e+00
 1.908324956893920898e+00 0.000000000000000000e+00 0.000000000000000000e+00
 1.913149952888488770e+00 0.000000000000000000e+00 0.000000000000000000e+00
 1.917974948883056641e+00 0.000000000000000000e+00 0.000000000000000000e+00
 1.922799944877624512e+00 0.000000000000000000e+00 0.000000000000000000e+00
 1.927624940872192383e+00 0.000000000000000000e+00 0.000000000000000000e+00
 1.932450056076049805e+00 0.000000000000000000e+00 0.000000000000000000e+00
 1.937275052070617676e+00 0.000000000000000000e+00 0.000000000000000000e+00
 1.942100048065185547e+00 0.000000000000000000e+00 0.000000000000000000e+00
 1.946925044059753418e+00 0.000000000000000000e+00 0.000000000000000000e+00
 1.951750040054321289e+00 0.000000000000000000e+00 0.000000000000000000e+00
 1.956575036048889160e+00 0.000000000000000000e+00 0.000000000000000000e+00
 1.961400032043457031e+00 0.000000000000000000e+00 0.000000000000000000e+00
 1.966225028038024902e+00 0.000000000000000000e+00 0.000000000000000000e+00
 1.971050024032592773e+00 0.000000000000000000e+00 0.000000000000000000e+00
 1.975875020027160645e+00 0.000000000000000000e+00 0.000000000000000000e+00
 1.980700016021728516e+00 0.000000000000000000e+00 0.000000000000000000e+00
 1.985525012016296387e+00 0.000000000000000000e+00 0.000000000000000000e+00
 1.990350008010864258e+00 0.000000000000000000e+00 0.000000000000000000e+00
 1.995175004005432129e+00 0.000000000000000000e+00 0.000000000000000000e+00
 2.000000000000000000e+00 0.000000000000000000e+00 0.000000000000000000e+00
 1.807000041007995605e+00 2.249999903142452240e-03 0.000000000000000000e+00
 1.811825037002563477e+00 2.249999903142452240e-03 0.000000000000000000e+00
 1.816650032997131348e+00 2.249999903142452240e-03 0.000000000000000000e+00
 1.821475028991699219e+00 2.249999903142452240e-03 0.000000000000000000e+00
 1.826300024986267090e+00 2.249999903142452240e-03 0.000000000000000000e+00
 1.831125020980834961e+00 2.249999903142452240e-03 0.000000000000000000e+00
 1.835950016975402832e+00 2.249999903142452240e-03 0.000000000000000000e+00
 1.840775012969970703e+00 2.249999903142452240e-03 0.000000000000000000e+00
 1.845600008964538574e+00 2.249999903142452240e-03 0.000000000000000000e+00
 1.850425004959106445e+00 2.249999903142452240e-03 0.000000000000000000e+00
 1.855250000953674316e+00 2.249999903142452240e-03 0.000000000000000000e+00
 1.860074996948242188e+00 2.249999903142452240e-03 0.000000000000000000e+00
 1.864899992942810059e+00 2.249999903142452240e-03 0.000000000000000000e+00
 1.869724988937377930e+00 2.249999903142452240e-03 0.000000000000000000e+00
 1.874549984931945801e+00 2.249999903142452240e-03 0.000000000000000000e+00
 1.879374980926513672e+00 2.249999903142452240e-03 0.000000000000000000e+00
 1.884199976921081543e+00 2.249999903142452240e-03 0.000000000000000000e+00
 1.889024972915649414e+00 2.249999903142452240e-03 0.000000000000000000e+00
 1.893849968910217285e+00 2.249999903142452240e-03 0.000000000000000000e+00
 1.898674964904785156e+00 2.249999903142452240e-03 0.000000000000000000e+00
 1.903499960899353027e+00 2.249999903142452240e-03 0.000000000000000000e+00
 1.908324956893920898e+00 2.249999903142452240e-03 0.000000000000000000e+00
 1.913149952888488770e+00 2.249999903142452240e-03 0.000000000000000000e+00
 1.917974948883056641e+00 2.249999903142452240e-03 0.000000000000000000e+00
 1.922799944877624512e+00 2.249999903142452240e-03 0.000000000000000000e+00
 1.927624940872192383e+00 2.249999903142452240e-03 0.000000000000000000e+00
 1.932450056076049805e+00 2.249999903142452240e-03 0.000000000000000000e+00
 1.937275052070617676e+00 2.249999903142452240e-03 0.000000000000000000e+00
 1.942100048065185547e+00 2.249999903142452240e-03 0.000000000000000000e+00
 1.946925044059753418e+00 2.249999903142452240e-03 0.000000000000000000e+00
 1.951750040054321289e+00 2.249999903142452240e-03 0.000000000000000000e+00
 1.956575036048889160e+00 2.249999903142452240e-03 0.000000000000000000e+00
 1.961400032043457031e+00 2.249999903142452240e-03 0.000000000000000000e+00
 1.966225028038024902e+00 2.249999903142452240e-03 0.000000000000000000e+00
 1.971050024032592773e+00 2.249999903142452240e-03 0.000000000000000000e+00
 1.975875020027160645e+00 2.249999903142452240e-03 0.000000000000000000e+00
 1.980700016021728516e+00 2.249999903142452240e-03 0.000000000000000000e+00
 1.985525012016296387e+00 2.249999903142452240e-03 0.000000000000000000e+00
 1.990350008010864258e+00 2.249999903142452240e-03 0.000000000000000000e+00
 1.995175004005432129e+00 2.249999903142452240e-03 0.000000000000000000e+00
 2.000000000000000000e+00 2.249999903142452240e-03 0.000000000000000000e+00
 1.807000041007995605e+00 4.499999806284904480e-03 0.000000000000000000e+00
 1.811825037002563477e+00 4.499999806284904480e-03 0.000000000000000000e+00
 1.816650032997131348e+00 4.499999806284904480e-03 0.000000000000000000e+00
 1.821475028991699219e+00 4.499999806284904480e-03 0.000000000000000000e+00
 1.826300024986267090e+00 4.499999806284904480e-03 0.000000000000000000e+00
 1.831125020980834961e+00 4.499999806284904480e-03 0.000000000000000000e+00
 1.835950016975402832e+00 4.499999806284904480e-03 0.000000000000000000e+00
 1.840775012969970703e+00 4.499999806284904480e-03 0.000000000000000000e+00
 1.845600008964538574e+00 4.499999806284904480e-03 0.000000000000000000e+00
 1.850425004959106445e+00 4.499999806284904480e-03 0.000000000000000000e+00
 1.855250000953674316e+00 4.499999806284904480e-03 0.000000000000000000e+00
 1.860074996948242188e+00 4.499999806284904480e-03 0.000000000000000000e+00
 1.864899992942810059e+00 4.499999806284904480e-03 0.000000000000000000e+00
 1.869724988937377930e+00 4.499999806284904480e-03 0.000000000000000000e+00
 1.874549984931945801e+00 4.499999806284904480e-03 0.000000000000000000e+00
 1.879374980926513672e+00 4.499999806284904480e-03 0.000000000000000000e+00
 1.884199976921081543e+00 4.499999806284904480e-03 0.000000000000000000e+00
 1.889024972915649414e+00 4.499999806284904480e-03 0.000000000000000000e+00
 1.893849968910217285e+00 4.499999806284904480e-03 0.000000000000000000e+00
 1.898674964904785156e+00 4.499999806284904480e-03 0.000000000000000000e+00
 1.903499960899353027e+00 4.499999806284904480e-03 0.000000000000000000e+00
 1.908324956893920898e+00 4.499999806284904480e-03 0.000000000000000000e+00
 1.913149952888488770e+00 4.499999806284904480e-03 0.000000000000000000e+00
 1.917974948883056641e+00 4.499999806284904480e-03 0.000000000000000000e+00
 1.922799944877624512e+00 4.499999806284904480e-03 0.000000000000000000e+00
 1.927624940872192383e+00 4.499999806284904480e-03 0.000000000000000000e+00
 1.932450056076049805e+00 4.499999806284904480e-03 0.000000000000000000e+00
 1.937275052070617676e+00 4.499999806284904480e-03 0.000000000000000000e+00
 1.942100048065185547e+00 4.499999806284904480e-03 0.000000000000000000e+00
 1.946925044059753418e+00 4.499999806284904480e-03 0.000000000000000000e+00
 1.951750040054321289e+00 4.499999806284904480e-03 0.000000000000000000e+00
 1.956575036048889160e+00 4.499999806284904480e-03 0.000000000000000000e+00
 1.961400032043457031e+00 4.499999806284904480e-03 0.000000000000000000e+00
 1.966225028038024902e+00 4.499999806284904480e-03 0.000000000000000000e+00
 1.971050024032592773e+00 4.499999806284904480e-03 0.000000000000000000e+00
 1.975875020027160645e+00 4.499999806284904480e-03 0.000000000000000000e+00
 1.980700016021728516e+00 4.499999806284904480e-03 0.000000000000000000e+00
 1.985525012016296387e+00 4.499999806284904480e-03 0.000000000000000000e+00
 1.990350008010864258e+00 4.499999806284904480e-03 0.000000000000000000e+00
 1.995175004005432129e+00 4.499999806284904480e-03 0.000000000000000000e+00
 2.000000000000000000e+00 4.499999806284904480e-03 0.000000000000000000e+00
 1.807000041007995605e+00 6.750000175088644028e-03 0.000000000000000000e+00
 1.811825037002563477e+00 6.750000175088644028e-03 0.000000000000000000e+00
 1.816650032997131348e+00 6.750000175088644028e-03 0.000000000000000000e+00
 1.821475028991699219e+00 6.750000175088644028e-03 0.000000000000000000e+00
 1.826300024986267090e+00 6.750000175088644028e-03 0.000000000000000000e+00
[...]
<CellData>
 <DataArray Name="pos.x" type="Float32" NumberOfComponents="1" format="ascii">
 1.809412500000034951e+00
 1.814237500000025261e+00
 1.819062500000061755e+00
 1.823887499999957473e+00
 1.828712500000021279e+00
 1.833537499999875253e+00
 1.838362500000008337e+00
 1.843187499999993761e+00
 1.848012500000141500e+00
 1.852837499999899995e+00
 1.857662499999859662e+00
 1.862487499999937013e+00
 1.867312500000034570e+00
 1.872137500000111476e+00
 1.876962500000070921e+00
 1.881787499999773905e+00
 1.886612500000159232e+00
 1.891437500000047622e+00
 1.896262500000069018e+00
 1.901087499999975838e+00
 1.905912499999836029e+00
 1.910737500000100786e+00
 1.915562500000067558e+00
 1.920387499999926861e+00
 1.925212499999933602e+00
 1.930037500000052919e+00
 1.934862500000012586e+00
 1.939687500000025544e+00
 1.944512499999825339e+00
 1.949337500000157819e+00
 1.954162499999904101e+00
 1.958987500000023418e+00
 1.963812499999933125e+00
 1.968637500000153695e+00
 1.973462499999955932e+00
 1.978287499999812349e+00
 1.983112499999980072e+00
 1.987937500000100055e+00
 1.992762499999901404e+00
 1.997587500000073568e+00
 1.809412500000157076e+00
 1.814237499999970638e+00
 1.819062499999994253e+00
 1.823887500000010320e+00
 1.828712499999953778e+00
 1.833537499999956744e+00
 1.838362500000008337e+00
 1.843187499999912937e+00
 1.848012499999899472e+00
 1.852837500000169779e+00
 1.857662499999966021e+00
 1.862487500000032492e+00
 1.867312500000002373e+00
 1.872137500000021104e+00
 1.876962499999895062e+00
 1.881787500000020819e+00
 1.886612499999954728e+00
 1.891437500000012317e+00
 1.896262499999952666e+00
 1.901087500000074426e+00
 1.905912499999836029e+00
 1.910737500000100786e+00
 1.915562500000067558e+00
 1.920387499999926861e+00
 1.925212499999933602e+00
 1.930037500000058470e+00
 1.934862500000007257e+00
 1.939687500000073728e+00
 1.944512499999829780e+00
 1.949337500000157819e+00
 1.954162499999957614e+00
 1.958987499999917503e+00
 1.963812499999933125e+00
 1.968637500000049556e+00
 1.973462500000113362e+00
 1.978287499999865418e+00
 1.983112499999980072e+00
 1.987937500000100055e+00
 1.992762499999901404e+00
 1.997587500000073568e+00
 1.809412499999905943e+00
 1.814237500000144276e+00
 1.819062499999887672e+00
 1.823887499999996775e+00
 1.828712500000031271e+00
 1.833537500000078202e+00
 1.838362499999954824e+00
 1.843187500000126766e+00
 1.848012499999804881e+00
 1.852837499999996140e+00
 1.857662499999977790e+00
 1.862487500000083340e+00
 1.867312499999940867e+00
 1.872137500000047750e+00
 1.876962499999974332e+00
 1.881787500000011715e+00
 1.886612500000114823e+00
 1.891437499999887306e+00
 1.896262499999926465e+00
 1.901087500000074426e+00
 1.905912500000041865e+00
 1.910737499999948241e+00
 1.915562500000074664e+00
 1.920387499999867575e+00
 1.925212500000140547e+00
 1.930037499999904149e+00
 1.934862500000161800e+00
 1.939687499999817266e+00
 1.944512500000091793e+00
 1.949337499999944656e+00
 1.954162500000064195e+00
 1.958987499999970350e+00
 1.963812500000039485e+00
 1.968637500000049556e+00
 1.973462500000060293e+00
 1.978287499999812349e+00
 1.983112500000140166e+00
 1.987937499999939961e+00
 1.992762499999954695e+00
 1.997587500000073568e+00
 1.809412499999996093e+00
 1.814237499999963754e+00
 1.819062500000084182e+00
 1.823887499999890194e+00
 1.828712500000075680e+00
 1.833537499999866149e+00
 1.838362500000163990e+00
 1.843187499999929146e+00
 1.848012500000004055e+00
 1.852837499999846926e+00
 1.857662500000167860e+00
 1.862487499999841090e+00
 1.867312500000077202e+00
 1.872137500000015109e+00
 1.876962500000017853e+00
 1.881787499999924229e+00
 1.886612499999999137e+00
 1.891437500000100691e+00
 1.896262499999917805e+00
 1.901087499999983610e+00
 1.905912499999981025e+00
 1.910737499999948241e+00
 1.915562500000074664e+00
 1.920387500000020786e+00
 1.925212499999987115e+00
 1.930037499999999628e+00
 1.934862500000012586e+00
 1.939687500000025544e+00
 1.944512499999883071e+00
 1.949337499999891588e+00
 1.954162500000064195e+00
 1.958987499999970350e+00
 1.963812499999983530e+00
 1.968637499999942975e+00
 1.973462500000115361e+00
 1.978287499999968890e+00
 1.983112499999981626e+00
 1.987937499999993696e+00
 1.992762499999955139e+00
 1.997587500000073568e+00
 1.809412499999997204e+00
 1.814237500000056791e+00
 1.819062500000029337e+00
 1.823887500000050288e+00
 1.828712499999988417e+00
 1.833537499999961851e+00
 1.838362499999927957e+00
 1.843187500000021517e+00
 1.848012500000000058e+00
 1.852837500000000359e+00
 1.857662500000061279e+00
 1.862487500000000962e+00
 1.867312500000077202e+00
 1.872137499999960486e+00
 1.876962499999922596e+00
 1.881787500000127622e+00
 1.886612499999946069e+00
 1.891437499999949923e+00
 1.896262500000122531e+00
 1.901087499999877029e+00
 1.905912499999981025e+00
 1.910737499999948241e+00
 1.915562499999974522e+00
 1.920387500000020786e+00
 1.925212500000087479e+00
 1.930037499999839978e+00
 1.934862500000225527e+00
 1.939687499999977360e+00
 1.944512499999989652e+00
 1.949337500000100309e+00
 1.954162500000014457e+00
 1.958987500000020310e+00
 1.963812499999880057e+00
 1.968637500000153695e+00
 1.973462500000011444e+00
 1.978287499999915156e+00
 1.983112499999928335e+00
 1.987937500000046764e+00
 1.992762499999954695e+00
 1.997587500000073568e+00
 1.809412499999943913e+00
 1.814237500000063452e+00
 1.819062499999984484e+00
 1.823887500000050288e+00
 1.828712499999979091e+00
 1.833537500000063547e+00
 1.838362500000034316e+00
 1.843187500000001977e+00
 1.848012500000053349e+00
 1.852837499999911985e+00
 1.857662499999954697e+00
 1.862487500000000962e+00
 1.867312500000077202e+00
 1.872137499999961818e+00
 1.876962499999921263e+00
 1.881787500000074331e+00
 1.886612500000052872e+00
 1.891437499999948813e+00
 1.896262500000123419e+00
 1.901087499999922326e+00
 1.905912499999988352e+00
 1.910737499999948241e+00
 1.915562500000127732e+00
 1.920387499999867575e+00
 1.925212500000087479e+00
 1.930037499999946338e+00
 1.934862500000017693e+00
 1.939687500000078391e+00
 1.944512499999883071e+00
 1.949337500000047019e+00
 1.954162499999957614e+00
 1.958987500000073823e+00
 1.963812499999829209e+00
 1.968637500000153695e+00
 1.973462499999851572e+00
 1.978287500000073473e+00
 1.983112500000036471e+00
 1.987937500000046764e+00
 1.992762499999848336e+00
 1.997587500000073568e+00
 1.809412499999943913e+00
 1.814237500000003500e+00
 1.819062500000038440e+00
 1.823887500000040518e+00
 1.828712499999981977e+00
 1.833537499999961851e+00
 1.838362500000081390e+00
 1.843187500000021517e+00
 1.848012500000046687e+00
 1.852837499999899995e+00
 1.857662500000103023e+00
 1.862487499999852192e+00
 1.867312499999974840e+00
 1.872137500000074839e+00
 1.876962500000220802e+00
 1.881787499999764579e+00
 1.886612500000096615e+00
 1.891437499999949923e+00
 1.896262499999971096e+00
 1.901087499999922326e+00
 1.905912500000140675e+00
 1.910737499999848765e+00
 1.915562500000220547e+00
 1.920387499999926861e+00
 1.925212499999880089e+00
 1.930037499999946338e+00
 1.934862500000119168e+00
 1.939687499999923848e+00
 1.944512500000033839e+00
 1.949337500000002166e+00
 1.954162500000060421e+00
 1.958987500000020310e+00
 1.963812499999882499e+00
 1.968637499999942975e+00
 1.973462500000168873e+00
 1.978287499999913823e+00
 1.983112500000036471e+00
 1.987937500000100277e+00
 1.992762499999848336e+00
 1.997587500000020055e+00
 1.809412500000088686e+00
 1.814237500000063452e+00
 1.819062499999978932e+00
 1.823887499999947925e+00
 1.828712500000088115e+00
 1.833537500000052889e+00
 1.838362499999785182e+00
 1.843187500000132095e+00
 1.848012500000043135e+00
 1.852837500000051429e+00
 1.857662499999904737e+00
 1.862487500000009177e+00
 1.867312500000026132e+00
 1.872137500000055521e+00
 1.876962499999974332e+00
 1.881787500000020819e+00
 1.886612500000052872e+00
 1.891437499999947924e+00
 1.896262500000070794e+00
 1.901087499999975838e+00
 1.905912499999882215e+00
 1.910737500000001310e+00
 1.915562499999967638e+00
 1.920387500000287018e+00
 1.925212499999880089e+00
 1.930037500000047368e+00
 1.934862500000017693e+00
 1.939687499999923848e+00
 1.944512500000087130e+00
 1.949337499999895584e+00
 1.954162500000007130e+00
 1.958987500000020310e+00
 1.963812499999882499e+00
 1.968637499999996265e+00
 1.973462500000062292e+00
 1.978287500000021959e+00
 1.983112499999981626e+00
 1.987937500000046320e+00
 1.992762499999901404e+00
 1.997587500000020055e+00
 1.809412500000088686e+00
 1.814237499999943326e+00
 1.819062499999882121e+00
 1.823887499999957473e+00
 1.828712500000140961e+00
 1.833537499999995157e+00
 1.838362499999981026e+00
 1.843187499999838330e+00
 1.848012500000096425e+00
 1.852837500000141358e+00
 1.857662499999921168e+00
 1.862487499999798901e+00
 1.867312500000133157e+00
 1.872137499999999788e+00
 1.876962499999819123e+00
 1.881787500000020819e+00
 1.886612499999953174e+00
 1.891437499999996774e+00
 1.896262500000114315e+00
 1.901087500000043118e+00
 1.905912500000027876e+00
 1.910737499999848765e+00
 1.915562500000021151e+00
 1.920387499999973935e+00
 1.925212499999987115e+00
 1.930037500000205686e+00
 1.934862500000065877e+00
 1.939687499999768638e+00
 1.944512500000197930e+00
 1.949337499999834744e+00
 1.954162500000220293e+00
 1.958987499999917503e+00
 1.963812500000039485e+00
 1.968637499999889684e+00
 1.973462500000115361e+00
 1.978287500000022403e+00
 1.983112499999824418e+00
 1.987937500000152236e+00
 1.992762499999848336e+00
 1.997587500000073568e+00
 1.809412499999934587e+00
 1.814237500000038139e+00
 1.819062499999978932e+00
 1.823887500000128892e+00
 1.828712499999893160e+00
 1.833537500000039122e+00
 1.838362499999927957e+00
 1.843187500000083467e+00
 1.848012499999993841e+00
 1.852837499999956838e+00
 1.857662499999921168e+00
 1.862487500000093776e+00
 1.867312499999941755e+00
 1.872137500000098376e+00
 1.876962500000019851e+00
 1.881787499999977076e+00
 1.886612499999999137e+00
 1.891437499999994554e+00
 1.896262499999862738e+00
 1.901087500000036901e+00
 1.905912499999927956e+00
 1.910737500000001310e+00
 1.915562500000172141e+00
 1.920387499999923753e+00
 1.925212499999936711e+00
 1.930037499999996520e+00
 1.934862499999963736e+00
 1.939687500000025988e+00
 1.944512499999936361e+00
 1.949337499999993728e+00
 1.954162500000166780e+00
 1.958987499999867321e+00
 1.963812500000038819e+00
 1.968637500000047558e+00
 1.973462500000115361e+00
 1.978287500000022625e+00
 1.983112499999824418e+00
 1.987937500000045654e+00
 1.992762499999954695e+00
 1.997587500000073568e+00
 1.809412499999943913e+00
 1.814237500000116299e+00
 1.819062499999930971e+00
 1.823887500000089146e+00
 1.828712499999937346e+00
 1.833537500000052889e+00
 1.838362499999927957e+00
 1.843187500000114998e+00
 1.848012499999953429e+00
 1.852837500000060089e+00
 1.857662499999817918e+00
 1.862487499999990082e+00
 1.867312500000077202e+00
 1.872137500000111476e+00
 1.876962499999974332e+00
 1.881787499999977076e+00
 1.886612499999946069e+00
 1.891437500000098693e+00
 1.896262499999866513e+00
 1.901087500000127495e+00
 1.905912499999836029e+00
 1.910737500000100786e+00
 1.915562500000074664e+00
 1.920387499999920644e+00
 1.925212499999933602e+00
 1.930037499999952333e+00
 1.934862500000167351e+00
 1.939687499999870335e+00
 1.944512500000087130e+00
 1.949337499999944656e+00
 1.954162500000117264e+00
 1.958987499999863990e+00
 1.963812499999985972e+00
 1.968637500000100182e+00
 1.973462499999904862e+00
 1.978287500000126764e+00
 1.983112499999929668e+00
 1.987937499999939961e+00
 1.992762499999954695e+00
 1.997587500000073568e+00
 1.809412500000034951e+00
 1.814237499999971748e+00
 1.819062499999984484e+00
 1.823887499999811812e+00
 1.828712500000074570e+00
 1.833537499999955411e+00
 1.838362500000087385e+00
 1.843187499999825674e+00
 1.848012500000189684e+00
 1.852837499999953508e+00
 1.857662499999982231e+00
 1.862487499999974538e+00
 1.867312499999927988e+00
 1.872137500000111476e+00
 1.876962499999974332e+00
 1.881787499999977076e+00
 1.886612499999990256e+00
 1.891437500000056726e+00
 1.896262499999922913e+00
 1.901087499999917219e+00
 1.905912500000041865e+00
 1.910737499999948241e+00
 1.915562500000127732e+00
 1.920387500000020786e+00
 1.925212499999987115e+00
 1.930037499999946338e+00
 1.934862500000012586e+00
 1.939687499999977360e+00
 1.944512500000091793e+00
 1.949337499999838075e+00
 1.954162499999957614e+00
 1.958987500000020310e+00
 1.963812500000039485e+00
 1.968637499999996265e+00
 1.973462499999851572e+00
 1.978287500000180055e+00
 1.983112499999929668e+00
 1.987937500000046764e+00
 1.992762499999848336e+00
 1.997587500000073568e+00
 1.809412500000088686e+00
 1.814237499999997061e+00
 1.819062500000001359e+00
 1.823887499999899964e+00
 1.828712500000021279e+00
 1.833537499999995157e+00
 1.838362500000047639e+00
 1.843187499999963563e+00
 1.848012500000010716e+00
 1.852837499999994808e+00
 1.857662499999966021e+00
 1.862487499999990082e+00
 1.867312499999927988e+00
 1.872137500000111476e+00
 1.876962499999921263e+00
 1.881787500000074331e+00
 1.886612499999946069e+00
 1.891437500000003213e+00
 1.896262500000122531e+00
 1.901087500000081976e+00
 1.905912499999828702e+00
 1.910737500000001310e+00
 1.915562500000127732e+00
 1.920387499999967496e+00
 1.925212499999987115e+00
 1.930037499999994077e+00
 1.934862500000017693e+00
 1.939687499999977360e+00
 1.944512499999936361e+00
 1.949337500000100309e+00
 1.954162500000011127e+00
 1.958987500000176851e+00
 1.963812499999882499e+00
 1.968637499999996265e+00
 1.973462500000115361e+00
 1.978287499999968668e+00
 1.983112499999981848e+00
 1.987937499999941071e+00
 1.992762499999954029e+00
 1.997587500000073790e+00
 1.809412499999943913e+00
 1.814237500000204228e+00
 1.819062499999988036e+00
 1.823887499999982564e+00
 1.828712499999796348e+00
 1.833537500000008258e+00
 1.838362499999967481e+00
 1.843187499999940249e+00
 1.848012500000046687e+00
 1.852837500000043436e+00
 1.857662499999917838e+00
 1.862487500000041596e+00
 1.867312499999983721e+00
 1.872137500000015109e+00
 1.876962500000070921e+00
 1.881787499999967972e+00
 1.886612499999942960e+00
 1.891437500000064276e+00
 1.896262500000019058e+00
 1.901087500000028907e+00
 1.905912499999935283e+00
 1.910737500000100786e+00
 1.915562500000067558e+00
 1.920387499999926861e+00
 1.925212499999933602e+00
 1.930037500000148176e+00
 1.934862499999916663e+00
 1.939687500000026432e+00
 1.944512500000041610e+00
 1.949337499999888035e+00
 1.954162499999957614e+00
 1.958987500000072934e+00
 1.963812499999882499e+00
 1.968637500000100182e+00
 1.973462500000011444e+00
 1.978287499999864085e+00
 1.983112500000086431e+00
 1.987937499999939961e+00
 1.992762499999954251e+00
 1.997587500000073568e+00
 1.809412499999943913e+00
 1.814237499999971748e+00
 1.819062499999988036e+00
 1.823887500000070716e+00
 1.828712500000088115e+00
 1.833537499999963627e+00
 1.838362500000043198e+00
 1.843187500000123435e+00
 1.848012499999945657e+00
 1.852837500000001691e+00
 1.857662500000003103e+00
 1.862487499999952556e+00
 1.867312499999942865e+00
 1.872137500000149890e+00
 1.876962499999921263e+00
 1.881787499999967972e+00
 1.886612499999990256e+00
 1.891437499999910621e+00
 1.896262500000019058e+00
 1.901087500000226083e+00
 1.905912499999836029e+00
 1.910737499999948241e+00
 1.915562500000120849e+00
 1.920387500000080738e+00
 1.925212499999987115e+00
 1.930037499999839978e+00
 1.934862500000225527e+00
 1.939687499999977360e+00
 1.944512499999936361e+00
 1.949337500000100309e+00
 1.954162500000011127e+00
 1.958987500000073823e+00
 1.963812499999882499e+00
 1.968637499999942975e+00
 1.973462499999851572e+00
 1.978287500000075250e+00
 1.983112500000034695e+00
 1.987937499999993696e+00
 1.992762499999954695e+00
 1.997587500000073568e+00
 1.809412500000126212e+00
 1.814237499999930447e+00
 1.819062499999995808e+00
 1.823887500000027417e+00
 1.828712500000035046e+00
 1.833537499999883913e+00
 1.838362500000141342e+00
 1.843187499999944912e+00
 1.848012499999940772e+00
 1.852837499999899995e+00
 1.857662499999869210e+00
 1.862487500000028273e+00
 1.867312499999932873e+00
 1.872137500000174537e+00
 1.876962499999867751e+00
 1.881787500000117852e+00
 1.886612499999947179e+00
 1.891437499999948813e+00
 1.896262500000079232e+00
 1.901087500000125718e+00
 1.905912499999935283e+00
 1.910737499999950240e+00
 1.915562500000071999e+00
 1.920387500000023229e+00
 1.925212499999933602e+00
 1.930037499999991191e+00
 1.934862500000071206e+00
 1.939687499999926068e+00
 1.944512500000087130e+00
 1.949337499999786560e+00
 1.954162500000064195e+00
 1.958987500000126891e+00
 1.963812500000094552e+00
 1.968637499999940532e+00
 1.973462500000009667e+00
 1.978287500000021737e+00
 1.983112499999981404e+00
 1.987937499999993474e+00
 1.992762499999954695e+00
 1.997587500000020055e+00
 1.809412500000050272e+00
 1.814237499999930447e+00
 1.819062499999992255e+00
 1.823887500000142214e+00
 1.828712500000008623e+00
 1.833537499999941867e+00
 1.838362500000061850e+00
 1.843187500000056156e+00
 1.848012499999899472e+00
 1.852837499999985260e+00
 1.857662499999959582e+00
 1.862487500000000962e+00
 1.867312500000019249e+00
 1.872137500000077948e+00
 1.876962499999911271e+00
 1.881787499999924229e+00
 1.886612500000155235e+00
 1.891437499999999883e+00
 1.896262500000019058e+00
 1.901087499999877029e+00
 1.905912499999877330e+00
 1.910737500000100786e+00
 1.915562499999974522e+00
 1.920387500000020786e+00
 1.925212499999987115e+00
 1.930037499999950557e+00
 1.934862500000065877e+00
 1.939687500000078391e+00
 1.944512500000033839e+00
 1.949337499999945544e+00
 1.954162499999908098e+00
 1.958987500000073823e+00
 1.963812499999882055e+00
 1.968637500000047558e+00
 1.973462499999957931e+00
 1.978287500000179833e+00
 1.983112499999876377e+00
 1.987937499999993474e+00
 1.992762500000007986e+00
 1.997587500000020722e+00
 1.809412500000088686e+00
 1.814237500000169812e+00
 1.819062499999988036e+00
 1.823887499999951922e+00
 1.828712499999968877e+00
 1.833537499999941645e+00
 1.838362500000141342e+00
 1.843187499999985768e+00
 1.848012499999894365e+00
 1.852837500000048099e+00
 1.857662499999981787e+00
 1.862487499999978535e+00
 1.867312500000077202e+00
 1.872137500000000454e+00
 1.876962499999930811e+00
 1.881787500000074331e+00
 1.886612499999839709e+00
 1.891437500000154204e+00
 1.896262499999971096e+00
 1.901087499999975838e+00
 1.905912500000034093e+00
 1.910737499999848765e+00
 1.915562500000067558e+00
 1.920387499999973935e+00
 1.925212499999987115e+00
 1.930037499999952333e+00
 1.934862500000113839e+00
 1.939687499999977360e+00
 1.944512499999984767e+00
 1.949337499999891588e+00
 1.954162500000064195e+00
 1.958987499999970350e+00
 1.963812500000039485e+00
 1.968637500000100182e+00
 1.973462499999957931e+00
 1.978287500000073473e+00
 1.983112499999929668e+00
 1.987937499999939961e+00
 1.992762499999954695e+00
 1.997587500000073568e+00
 1.809412499999978108e+00
 1.814237500000051240e+00
 1.819062499999973825e+00
 1.823887500000076933e+00
 1.828712499999897378e+00
 1.833537499999977394e+00
 1.838362500000132016e+00
 1.843187499999968226e+00
 1.848012500000255409e+00
 1.852837499999953508e+00
 1.857662499999864547e+00
 1.862487500000006069e+00
 1.867312500000087194e+00
 1.872137500000005561e+00
 1.876962499999916156e+00
 1.881787500000020819e+00
 1.886612500000052872e+00
 1.891437500000100691e+00
 1.896262499999878948e+00
 1.901087499999867259e+00
 1.905912499999990350e+00
 1.910737500000098787e+00
 1.915562499999967638e+00
 1.920387499999976155e+00
 1.925212500000093918e+00
 1.930037499999943673e+00
 1.934862500000065877e+00
 1.939687499999977360e+00
 1.944512500000140642e+00
 1.949337499999789225e+00
 1.954162500000063085e+00
 1.958987500000021420e+00
 1.963812500000091887e+00
 1.968637499999837059e+00
 1.973462499999959707e+00
 1.978287500000125210e+00
 1.983112499999876377e+00
 1.987937500000100055e+00
 1.992762499999794823e+00
 1.997587500000073790e+00
 1.809412500000088686e+00
 1.814237500000002168e+00
 1.819062499999938964e+00
 1.823887500000063833e+00
 1.828712500000167385e+00