<VTKFile type="UnstructuredGrid" byte_order="BigEndian">
<UnstructuredGrid><Piece NumberOfPoints="231" NumberOfCells="200">
<Points>
 <DataArray type="Float32" NumberOfComponents="3" format="ascii">
 0.000000000000000000e+00 0.000000000000000000e+00 0.000000000000000000e+00
 4.940000176429748535e-02 0.000000000000000000e+00 0.000000000000000000e+00
 9.880000352859497070e-02 0.000000000000000000e+00 0.000000000000000000e+00
 1.482000052928924561e-01 0.000000000000000000e+00 0.000000000000000000e+00
 1.976000070571899414e-01 0.000000000000000000e+00 0.000000000000000000e+00
 2.469999939203262329e-01 0.000000000000000000e+00 0.000000000000000000e+00
 2.964000105857849121e-01 0.000000000000000000e+00 0.000000000000000000e+00
 3.458000123500823975e-01 0.000000000000000000e+00 0.000000000000000000e+00
 3.952000141143798828e-01 0.000000000000000000e+00 0.000000000000000000e+00
 4.445999860763549805e-01 0.000000000000000000e+00 0.000000000000000000e+00
 4.939999878406524658e-01 0.000000000000000000e+00 0.000000000000000000e+00
 5.433999896049499512e-01 0.000000000000000000e+00 0.000000000000000000e+00
 5.928000211715698242e-01 0.000000000000000000e+00 0.000000000000000000e+00
 6.421999931335449219e-01 0.000000000000000000e+00 0.000000000000000000e+00
 6.916000247001647949e-01 0.000000000000000000e+00 0.000000000000000000e+00
 7.409999966621398926e-01 0.000000000000000000e+00 0.000000000000000000e+00
 7.904000282287597656e-01 0.000000000000000000e+00 0.000000000000000000e+00
 8.398000001907348633e-01 0.000000000000000000e+00 0.000000000000000000e+00
 8.891999721527099609e-01 0.000000000000000000e+00 0.000000000000000000e+00
 9.386000037193298340e-01 0.000000000000000000e+00 0.000000000000000000e+00
 9.879999756813049316e-01 0.000000000000000000e+00 0.000000000000000000e+00
 0.000000000000000000e+00 4.540000110864639282e-02 0.000000000000000000e+00
 4.940000176429748535e-02 4.462499916553497314e-02 0.000000000000000000e+00
 9.880000352859497070e-02 4.385000094771385193e-02 0.000000000000000000e+00
 1.482000052928924561e-01 4.307499900460243225e-02 0.000000000000000000e+00
 1.976000070571899414e-01 4.230000078678131104e-02 0.000000000000000000e+00
 2.469999939203262329e-01 4.152499884366989136e-02 0.000000000000000000e+00
 2.964000105857849121e-01 4.075000062584877014e-02 0.000000000000000000e+00
 3.458000123500823975e-01 3.997499868273735046e-02 0.000000000000000000e+00
 3.952000141143798828e-01 3.920000046491622925e-02 0.000000000000000000e+00
 4.445999860763549805e-01 3.842499852180480957e-02 0.000000000000000000e+00
 4.939999878406524658e-01 3.765000030398368835e-02 0.000000000000000000e+00
 5.433999896049499512e-01 3.687499836087226868e-02 0.000000000000000000e+00
 5.928000211715698242e-01 3.610000014305114746e-02 0.000000000000000000e+00
 6.421999931335449219e-01 3.532499819993972778e-02 0.000000000000000000e+00
 6.916000247001647949e-01 3.454999998211860657e-02 0.000000000000000000e+00
 7.409999966621398926e-01 3.377500176429748535e-02 0.000000000000000000e+00
 7.904000282287597656e-01 3.299999982118606567e-02 0.000000000000000000e+00
 8.398000001907348633e-01 3.222500160336494446e-02 0.000000000000000000e+00
 8.891999721527099609e-01 3.144999966025352478e-02 0.000000000000000000e+00
 9.386000037193298340e-01 3.067499957978725433e-02 0.000000000000000000e+00
 9.879999756813049316e-01 2.989999949932098389e-02 0.000000000000000000e+00
 0.000000000000000000e+00 9.080000221729278564e-02 0.000000000000000000e+00
 4.940000176429748535e-02 8.924999833106994629e-02 0.000000000000000000e+00
 9.880000352859497070e-02 8.770000189542770386e-02 0.000000000000000000e+00
 1.482000052928924561e-01 8.614999800920486450e-02 0.000000000000000000e+00
 1.976000070571899414e-01 8.460000157356262207e-02 0.000000000000000000e+00
 2.469999939203262329e-01 8.304999768733978271e-02 0.000000000000000000e+00
 2.964000105857849121e-01 8.150000125169754028e-02 0.000000000000000000e+00
 3.458000123500823975e-01 7.994999736547470093e-02 0.000000000000000000e+00
 3.952000141143798828e-01 7.840000092983245850e-02 0.000000000000000000e+00
 4.445999860763549805e-01 7.684999704360961914e-02 0.000000000000000000e+00
 4.939999878406524658e-01 7.530000060796737671e-02 0.000000000000000000e+00
 5.433999896049499512e-01 7.374999672174453735e-02 0.000000000000000000e+00
 5.928000211715698242e-01 7.220000028610229492e-02 0.000000000000000000e+00
 6.421999931335449219e-01 7.064999639987945557e-02 0.000000000000000000e+00
 6.916000247001647949e-01 6.909999996423721313e-02 0.000000000000000000e+00
 7.409999966621398926e-01 6.755000352859497070e-02 0.000000000000000000e+00
 7.904000282287597656e-01 6.599999964237213135e-02 0.000000000000000000e+00
 8.398000001907348633e-01 6.445000320672988892e-02 0.000000000000000000e+00
 8.891999721527099609e-01 6.289999932050704956e-02 0.000000000000000000e+00
 9.386000037193298340e-01 6.134999915957450867e-02 0.000000000000000000e+00
 9.879999756813049316e-01 5.979999899864196777e-02 0.000000000000000000e+00
 0.000000000000000000e+00 1.361999958753585815e-01 0.000000000000000000e+00
 4.940000176429748535e-02 1.338749974966049194e-01 0.000000000000000000e+00
 9.880000352859497070e-02 1.315499991178512573e-01 0.000000000000000000e+00
 1.482000052928924561e-01 1.292250007390975952e-01 0.000000000000000000e+00
 1.976000070571899414e-01 1.269000023603439331e-01 0.000000000000000000e+00
 2.469999939203262329e-01 1.245749965310096741e-01 0.000000000000000000e+00
 2.964000105857849121e-01 1.222499981522560120e-01 0.000000000000000000e+00
 3.458000123500823975e-01 1.199249997735023499e-01 0.000000000000000000e+00
 3.952000141143798828e-01 1.176000013947486877e-01 0.000000000000000000e+00
 4.445999860763549805e-01 1.152750030159950256e-01 0.000000000000000000e+00
 4.939999878406524658e-01 1.129499971866607666e-01 0.000000000000000000e+00
 5.433999896049499512e-01 1.106249988079071045e-01 0.000000000000000000e+00
 5.928000211715698242e-01 1.083000004291534424e-01 0.000000000000000000e+00
 6.421999931335449219e-01 1.059750020503997803e-01 0.000000000000000000e+00
 6.916000247001647949e-01 1.036500036716461182e-01 0.000000000000000000e+00
 7.409999966621398926e-01 1.013249978423118591e-01 0.000000000000000000e+00
 7.904000282287597656e-01 9.899999946355819702e-02 0.000000000000000000e+00
 8.398000001907348633e-01 9.667500108480453491e-02 0.000000000000000000e+00
 8.891999721527099609e-01 9.435000270605087280e-02 0.000000000000000000e+00
 9.386000037193298340e-01 9.202499687671661377e-02 0.000000000000000000e+00
 9.879999756813049316e-01 8.969999849796295166e-02 0.000000000000000000e+00
 0.000000000000000000e+00 1.816000044345855713e-01 0.000000000000000000e+00
 4.940000176429748535e-02 1.784999966621398926e-01 0.000000000000000000e+00
 9.880000352859497070e-02 1.754000037908554077e-01 0.000000000000000000e+00
 1.482000052928924561e-01 1.722999960184097290e-01 0.000000000000000000e+00
 1.976000070571899414e-01 1.692000031471252441e-01 0.000000000000000000e+00
 2.469999939203262329e-01 1.660999953746795654e-01 0.000000000000000000e+00
 2.964000105857849121e-01 1.630000025033950806e-01 0.000000000000000000e+00
 3.458000123500823975e-01 1.598999947309494019e-01 0.000000000000000000e+00
 3.952000141143798828e-01 1.568000018596649170e-01 0.000000000000000000e+00
 4.445999860763549805e-01 1.536999940872192383e-01 0.000000000000000000e+00
 4.939999878406524658e-01 1.506000012159347534e-01 0.000000000000000000e+00
 5.433999896049499512e-01 1.474999934434890747e-01 0.000000000000000000e+00
 5.928000211715698242e-01 1.444000005722045898e-01 0.000000000000000000e+00
 6.421999931335449219e-01 1.412999927997589111e-01 0.000000000000000000e+00
 6.916000247001647949e-01 1.381999999284744263e-01 0.000000000000000000e+00
 7.409999966621398926e-01 1.351000070571899414e-01 0.000000000000000000e+00
 7.904000282287597656e-01 1.319999992847442627e-01 0.000000000000000000e+00
 8.398000001907348633e-01 1.289000064134597778e-01 0.000000000000000000e+00
 8.891999721527099609e-01 1.257999986410140991e-01 0.000000000000000000e+00
 9.386000037193298340e-01 1.226999983191490173e-01 0.000000000000000000e+00
 9.879999756813049316e-01 1.195999979972839355e-01 0.000000000000000000e+00
 0.000000000000000000e+00 2.269999980926513672e-01 0.000000000000000000e+00
 4.940000176429748535e-02 2.231249958276748657e-01 0.000000000000000000e+00
 9.880000352859497070e-02 2.192499935626983643e-01 0.000000000000000000e+00
 1.482000052928924561e-01 2.153750061988830566e-01 0.000000000000000000e+00
 1.976000070571899414e-01 2.115000039339065552e-01 0.000000000000000000e+00
 2.469999939203262329e-01 2.076250016689300537e-01 0.000000000000000000e+00
 2.964000105857849121e-01 2.037499994039535522e-01 0.000000000000000000e+00
 3.458000123500823975e-01 1.998749971389770508e-01 0.000000000000000000e+00
 3.952000141143798828e-01 1.959999948740005493e-01 0.000000000000000000e+00
 4.445999860763549805e-01 1.921249926090240479e-01 0.000000000000000000e+00
 4.939999878406524658e-01 1.882500052452087402e-01 0.000000000000000000e+00
 5.433999896049499512e-01 1.843750029802322388e-01 0.000000000000000000e+00
 5.928000211715698242e-01 1.805000007152557373e-01 0.000000000000000000e+00
 6.421999931335449219e-01 1.766249984502792358e-01 0.000000000000000000e+00
 6.916000247001647949e-01 1.727499961853027344e-01 0.000000000000000000e+00
 7.409999966621398926e-01 1.688749939203262329e-01 0.000000000000000000e+00
 7.904000282287597656e-01 1.650000065565109253e-01 0.000000000000000000e+00
 8.398000001907348633e-01 1.611250042915344238e-01 0.000000000000000000e+00
 8.891999721527099609e-01 1.572500020265579224e-01 0.000000000000000000e+00
 9.386000037193298340e-01 1.533749997615814209e-01 0.000000000000000000e+00
 9.879999756813049316e-01 1.494999974966049194e-01 0.000000000000000000e+00
 0.000000000000000000e+00 2.723999917507171631e-01 0.000000000000000000e+00
 4.940000176429748535e-02 2.677499949932098389e-01 0.000000000000000000e+00
[...]
<CellData>
 <DataArray Name="pos.x" type="Float32" NumberOfComponents="1" format="ascii">
 2.462912154031287118e-02
 7.402787981539042661e-02
 1.234265938069216695e-01
 1.728252611029770514e-01
 2.222238791132319369e-01
 2.716224450521622091e-01
 3.210209559203056062e-01
 3.704194084833175027e-01
 4.198177992485241927e-01
 4.692161244386026664e-01
 5.186143799619813421e-01
 5.680125613794686501e-01
 6.174106638665268765e-01
 6.668086821705415668e-01
 7.162066105622634238e-01
 7.656044427804815644e-01
 8.150021719688258504e-01
 8.643997906033231704e-01
 9.137972904091222759e-01
 9.631946622644084188e-01
 2.462912154031287465e-02
 7.402787981539042661e-02
 1.234265938069216695e-01
 1.728252611029771624e-01
 2.222238791132318536e-01
 2.716224450521621536e-01
 3.210209559203062168e-01
 3.704194084833171141e-01
 4.198177992485241927e-01
 4.692161244386023333e-01
 5.186143799619806760e-01
 5.680125613794683170e-01
 6.174106638665272095e-01
 6.668086821705415668e-01
 7.162066105622638679e-01
 7.656044427804813424e-01
 8.150021719688237409e-01
 8.643997906033250578e-01
 9.137972904091212767e-01
 9.631946622644091960e-01
 2.462912154031288159e-02
 7.402787981539042661e-02
 1.234265938069216417e-01
 1.728252611029771069e-01
 2.222238791132318259e-01
 2.716224450521624312e-01
 3.210209559203056617e-01
 3.704194084833177247e-01
 4.198177992485233045e-01
 4.692161244386029439e-01
 5.186143799619817862e-01
 5.680125613794670958e-01
 6.174106638665275426e-01
 6.668086821705418998e-01
 7.162066105622634238e-01
 7.656044427804811203e-01
 8.150021719688270716e-01
 8.643997906033242806e-01
 9.137972904091222759e-01
 9.631946622644106393e-01
 2.462912154031286077e-02
 7.402787981539041273e-02
 1.234265938069217250e-01
 1.728252611029769126e-01
 2.222238791132321034e-01
 2.716224450521627087e-01
 3.210209559203055507e-01
 3.704194084833172251e-01
 4.198177992485235821e-01
 4.692161244386028329e-01
 5.186143799619815642e-01
 5.680125613794680950e-01
 6.174106638665264324e-01
 6.668086821705413447e-01
 7.162066105622660883e-01
 7.656044427804781227e-01
 8.150021719688272936e-01
 8.643997906033232814e-01
 9.137972904091266058e-01
 9.631946622644079747e-01
 2.462912154031288159e-02
 7.402787981539042661e-02
 1.234265938069216556e-01
 1.728252611029769403e-01
 2.222238791132319369e-01
 2.716224450521624312e-01
 3.210209559203055507e-01
 3.704194084833177802e-01
 4.198177992485240262e-01
 4.692161244386031105e-01
 5.186143799619808981e-01
 5.680125613794697603e-01
 6.174106638665265434e-01
 6.668086821705414557e-01
 7.162066105622663104e-01
 7.656044427804808983e-01
 8.150021719688248512e-01
 8.643997906033223932e-01
 9.137972904091258286e-01
 9.631946622644116385e-01
 2.462912154031288506e-02
 7.402787981539039885e-02
 1.234265938069217527e-01
 1.728252611029771069e-01
 2.222238791132319369e-01
 2.716224450521626532e-01
 3.210209559203051066e-01
 3.704194084833177247e-01
 4.198177992485239152e-01
 4.692161244386031660e-01
 5.186143799619806760e-01
 5.680125613794687611e-01
 6.174106638665257663e-01
 6.668086821705410117e-01
 7.162066105622652001e-01
 7.656044427804816754e-01
 8.150021719688259614e-01
 8.643997906033236145e-01
 9.137972904091226090e-01
 9.631946622644086409e-01
 2.462912154031287812e-02
 7.402787981539041273e-02
 1.234265938069216417e-01
 1.728252611029771901e-01
 2.222238791132318259e-01
 2.716224450521625977e-01
 3.210209559203055507e-01
 3.704194084833180023e-01
 4.198177992485234711e-01
 4.692161244386028329e-01
 5.186143799619808981e-01
 5.680125613794685391e-01
 6.174106638665267655e-01
 6.668086821705415668e-01
 7.162066105622636458e-01
 7.656044427804822305e-01
 8.150021719688264055e-01
 8.643997906033200618e-01
 9.137972904091193893e-01
 9.631946622644116385e-01
 2.462912154031285383e-02
 7.402787981539039885e-02
 1.234265938069216972e-01
 1.728252611029770236e-01
 2.222238791132318259e-01
 2.716224450521624312e-01
 3.210209559203051621e-01
 3.704194084833177247e-01
 4.198177992485250254e-01
 4.692161244386026109e-01
 5.186143799619808981e-01
 5.680125613794674289e-01
 6.174106638665285418e-01
 6.668086821705414557e-01
 7.162066105622647560e-01
 7.656044427804782337e-01
 8.150021719688282928e-01
 8.643997906033250578e-01
 9.137972904091185011e-01
 9.631946622644097511e-01
 2.462912154031287812e-02
 7.402787981539035722e-02
 1.234265938069216834e-01
 1.728252611029770791e-01
 2.222238791132320201e-01
 2.716224450521625977e-01
 3.210209559203054397e-01
 3.704194084833171696e-01
 4.198177992485236376e-01
 4.692161244386025554e-01
 5.186143799619801209e-01
 5.680125613794688721e-01
 6.174106638665268765e-01
 6.668086821705425660e-01
 7.162066105622668655e-01
 7.656044427804817865e-01
 8.150021719688240740e-01
 8.643997906033242806e-01
 9.137972904091210546e-01
 9.631946622644077527e-01
 2.462912154031287465e-02
 7.402787981539038498e-02
 1.234265938069216834e-01
 1.728252611029769403e-01
 2.222238791132319646e-01
 2.716224450521625977e-01
 3.210209559203051621e-01
 3.704194084833172251e-01
 4.198177992485243037e-01
 4.692161244386019447e-01
 5.186143799619812311e-01
 5.680125613794677619e-01
 6.174106638665269875e-01
 6.668086821705405676e-01
 7.162066105622649781e-01
 7.656044427804800101e-01
 8.150021719688251842e-01
 8.643997906033215051e-01
 9.137972904091231641e-01
 9.631946622644076417e-01
 </DataArray>
 <DataArray Name="pos.y" type="Float32" NumberOfComponents="1" format="ascii">
 2.250680597982041356e-02
 2.211931572007158966e-02
 2.173182580768862060e-02
 2.134433626159100775e-02
 2.095684710209762963e-02
 2.056935835105843866e-02
 2.018187003200164545e-02
 1.979438217029786534e-02
 1.940689479334410314e-02
 1.901940793077008807e-02
 1.863192161467067121e-02
 1.824443587986757445e-02
 1.785695076420486249e-02
 1.746946630888491017e-02
 1.708198255884862959e-02
 1.669449956320977896e-02
 1.630701737575061816e-02
 1.591953605549014175e-02
 1.553205566733734805e-02
 1.514457628284494352e-02
 6.752041793946125803e-02
 6.635794716021477246e-02
 6.519547742306583404e-02
 6.403300878477308222e-02
 6.287054130629286808e-02
 6.170807505317527086e-02
 6.054561009600503002e-02
 5.938314651089355439e-02
 5.822068438003227819e-02
 5.705822379231019481e-02
 5.589576484401203443e-02
 5.473330763960265744e-02
 5.357085229261467074e-02
 5.240839892665464378e-02
 5.124594767654593735e-02
 5.008349868962939239e-02
 4.892105212725175040e-02
 4.775860816647037321e-02
 4.659616700201203721e-02
 4.543372884853489474e-02
 1.125340298991020921e-01
 1.105965786003579726e-01
 1.086591290384430752e-01
 1.067216813079551879e-01
 1.047842355104880718e-01
 1.028467917552921551e-01
 1.009093501600083070e-01
 9.897191085148933365e-02
 9.703447396672033876e-02
 9.509703965385048197e-02
 9.315960807335353644e-02
 9.122217939933750797e-02
 8.928475382102449287e-02
 8.734733154442449188e-02
 8.540991279424317573e-02
 8.347249781604880459e-02
 8.153508687875307692e-02
 7.959768027745066366e-02
 7.766027833668678881e-02
 7.572288141422479912e-02
 1.575476418587429539e-01
 1.548352100405011311e-01
 1.521227806538203997e-01
 1.494103538311370716e-01
 1.466979297146835670e-01
 1.439855084574092337e-01
 1.412730902240115494e-01
 1.385606751920849811e-01
 1.358482635534083716e-01
 1.331358555153906720e-01
 1.304234513026947540e-01
 1.277110511590728026e-01
 1.249986553494341623e-01
 1.222862641621942359e-01
 1.195738779119407680e-01
 1.168614969424679739e-01
 1.141491216302543688e-01
 1.114367523884306488e-01
 1.087243896713621233e-01
 1.060120339799145300e-01
 2.025612538183836908e-01
 1.990738414806442480e-01
 1.955864322691976132e-01
 1.920990263543191634e-01
 1.886116239188785348e-01
 1.851242251595258403e-01
 1.816368302880148333e-01
 1.781494395326807811e-01
 1.746620531400966403e-01
 1.711746713769310146e-01
 1.676872945320360964e-01
 1.641999229188081943e-01
 1.607125568778438041e-01
 1.572251967799637440e-01
 1.537378430296382215e-01
 1.502504960688880453e-01
 1.467631563817552720e-01
 1.432758244994105645e-01
 1.397885010060367084e-01
 1.363011865456046912e-01
 2.475748657780245665e-01
 2.433124729207875314e-01
 2.390500838845749654e-01
 2.347876988775013662e-01
 2.305253181230738913e-01
 2.262629418616428911e-01
 2.220005703520177842e-01
 2.177382038732768588e-01
 2.134758427267845760e-01
 2.092134872384709687e-01
 2.049511377613774110e-01
 2.006887946785433086e-01
 1.964264584062535290e-01
 1.921641293977338627e-01
 1.879018081473354251e-01
 1.836394951953078392e-01
 1.793771911332567304e-01
 1.751148966103908966e-01
 1.708526123407112240e-01
 1.665903391112943943e-01
 2.925884777376656642e-01
 2.875511043609307316e-01
 2.825137354999520123e-01
 2.774763714006834858e-01
 2.724390123272691921e-01
 2.674016585637599142e-01
 2.623643104160214290e-01
 2.573269682138724646e-01
 2.522896323134729002e-01
 2.472523031000114224e-01
 2.422149809907187812e-01
 2.371776664382781175e-01
 2.321403599346636426e-01
 2.271030620155033708e-01
 2.220657732650322125e-01
 2.170284943217273832e-01
 2.119912258847578002e-01
 2.069539687213711454e-01
 2.019167236753850181e-01
 1.968794916769845693e-01
 3.376020896973062624e-01
 3.317897358010737374e-01
 3.259773871153291425e-01
 3.201650439238652446e-01
 3.143527065314643543e-01
 3.085403752658766319e-01
 3.027280504800246574e-01
 2.969157325544680148e-01
 2.911034219001615297e-01
 2.852911189615512932e-01
 2.794788242200603734e-01
 2.736665381980126766e-01
 2.678542614630737284e-01
 2.620419946332733785e-01
 2.562297383827303876e-01
 2.504174934481461778e-01
 2.446052606362593973e-01
 2.387930408323521991e-01
 2.329808350100598946e-01
 2.271686442426739672e-01
 3.826157016569472491e-01
 3.760283672412169098e-01
 3.694410387307066612e-01
 3.628537164470475029e-01
 3.562664007356596829e-01
 3.496790919679929610e-01
 3.430917905440278304e-01
 3.365044968950637316e-01
 3.299172114868490491e-01
 3.233299348230915804e-01
 3.167426674494010497e-01
 3.101554099577480961e-01
 3.035681629914829815e-01
 2.969809272510437470e-01
 2.903937035004274803e-01
 2.838064925745665268e-01
 2.772192953877593569e-01
 2.706321129433320039e-01
 2.640449463447352429e-01
 2.574577968083633928e-01
 4.276293136165877917e-01
 4.202669986813599712e-01
 4.129046903460840134e-01
 4.055423889702288176e-01
 3.981800949398546230e-01
 3.908178086701105114e-01
 3.834555306080310033e-01
 3.760932612356587268e-01
 3.687310010735381782e-01
 3.613687506846310904e-01
 3.540065106787431692e-01
 3.466442817174827384e-01
 3.392820645198929563e-01
 3.319198598688121726e-01
 3.245576686181246839e-01
 3.171954917009853214e-01
 3.098333301392614536e-01
 3.024711850543119196e-01
 2.951090576794098697e-01
 2.877469493740535955e-01
 </DataArray>
 <DataArray Name="pos.z" type="Float32" NumberOfComponents="1" format="ascii">
 0.000000000000000000e+00
 0.000000000000000000e+00
 0.000000000000000000e+00
 0.000000000000000000e+00
 0.000000000000000000e+00
 0.000000000000000000e+00
 0.000000000000000000e+00
 0.000000000000000000e+00
 0.000000000000000000e+00
 0.000000000000000000e+00
 0.000000000000000000e+00
 0.000000000000000000e+00
 0.000000000000000000e+00
 0.000000000000000000e+00
 0.000000000000000000e+00
 0.000000000000000000e+00
 0.000000000000000000e+00
 0.000000000000000000e+00
 0.000000000000000000e+00
 0.000000000000000000e+00
 0.000000000000000000e+00
 0.000000000000000000e+00
 0.000000000000000000e+00
 0.000000000000000000e+00
 0.000000000000000000e+00
 0.000000000000000000e+00
 0.000000000000000000e+00
 0.000000000000000000e+00
 0.000000000000000000e+00
 0.000000000000000000e+00
 0.000000000000000000e+00
 0.000000000000000000e+00
 0.000000000000000000e+00
 0.000000000000000000e+00
 0.000000000000000000e+00
 0.000000000000000000e+00
 0.000000000000000000e+00
 0.000000000000000000e+00
 0.000000000000000000e+00
 0.000000000000000000e+00
 0.000000000000000000e+00
 0.000000000000000000e+00
 0.000000000000000000e+00
 0.000000000000000000e+00
 0.000000000000000000e+00
 0.000000000000000000e+00
 0.000000000000000000e+00
 0.000000000000000000e+00
 0.000000000000000000e+00
 0.000000000000000000e+00
 0.000000000000000000e+00
 0.000000000000000000e+00
 0.000000000000000000e+00
 0.000000000000000000e+00
 0.000000000000000000e+00
 0.000000000000000000e+00
 0.000000000000000000e+00
 0.000000000000000000e+00
 0.000000000000000000e+00
 0.000000000000000000e+00
 0.000000000000000000e+00
 0.000000000000000000e+00
 0.000000000000000000e+00
 0.000000000000000000e+00
 0.000000000000000000e+00
 0.000000000000000000e+00
 0.000000000000000000e+00
 0.000000000000000000e+00
 0.000000000000000000e+00
 0.000000000000000000e+00
 0.000000000000000000e+00
 0.000000000000000000e+00
 0.000000000000000000e+00
 0.000000000000000000e+00
 0.000000000000000000e+00
 0.000000000000000000e+00
 0.000000000000000000e+00
 0.000000000000000000e+00
 0.000000000000000000e+00
 0.000000000000000000e+00
 0.000000000000000000e+00
 0.000000000000000000e+00
 0.000000000000000000e+00
 0.000000000000000000e+00
 0.000000000000000000e+00
 0.000000000000000000e+00
 0.000000000000000000e+00
 0.000000000000000000e+00
 0.000000000000000000e+00
 0.000000000000000000e+00
 0.000000000000000000e+00
 0.000000000000000000e+00
 0.000000000000000000e+00
 0.000000000000000000e+00
 0.000000000000000000e+00
 0.000000000000000000e+00
 0.000000000000000000e+00
 0.000000000000000000e+00
 0.000000000000000000e+00
 0.000000000000000000e+00
 0.000000000000000000e+00
 0.000000000000000000e+00
 0.000000000000000000e+00
 0.000000000000000000e+00
 0.000000000000000000e+00
 0.000000000000000000e+00
 0.000000000000000000e+00
 0.000000000000000000e+00
 0.000000000000000000e+00
 0.000000000000000000e+00
 0.000000000000000000e+00
 0.000000000000000000e+00
 0.000000000000000000e+00
 0.000000000000000000e+00
 0.000000000000000000e+00
 0.000000000000000000e+00
 0.000000000000000000e+00
 0.000000000000000000e+00
 0.000000000000000000e+00
 0.000000000000000000e+00
 0.000000000000000000e+00
 0.000000000000000000e+00
 0.000000000000000000e+00
 0.000000000000000000e+00
 0.000000000000000000e+00
 0.000000000000000000e+00
 0.000000000000000000e+00
 0.000000000000000000e+00
 0.000000000000000000e+00
 0.000000000000000000e+00
 0.000000000000000000e+00
 0.000000000000000000e+00
 0.000000000000000000e+00
 0.000000000000000000e+00
 0.000000000000000000e+00
 0.000000000000000000e+00
 0.000000000000000000e+00
 0.000000000000000000e+00
 0.000000000000000000e+00
 0.000000000000000000e+00
 0.000000000000000000e+00
 0.000000000000000000e+00
 0.000000000000000000e+00
 0.000000000000000000e+00
 0.000000000000000000e+00
 0.000000000000000000e+00
 0.000000000000000000e+00
 0.000000000000000000e+00
 0.000000000000000000e+00
 0.000000000000000000e+00
 0.000000000000000000e+00
 0.000000000000000000e+00
 0.000000000000000000e+00
 0.000000000000000000e+00
 0.000000000000000000e+00
 0.000000000000000000e+00
 0.000000000000000000e+00
 0.000000000000000000e+00
 0.000000000000000000e+00
 0.000000000000000000e+00
 0.000000000000000000e+00
 0.000000000000000000e+00
 0.000000000000000000e+00
 0.000000000000000000e+00
 0.000000000000000000e+00
 0.000000000000000000e+00
 0.000000000000000000e+00
 0.000000000000000000e+00
 0.000000000000000000e+00
 0.000000000000000000e+00
 0.000000000000000000e+00
 0.000000000000000000e+00
 0.000000000000000000e+00
 0.000000000000000000e+00
 0.000000000000000000e+00
 0.000000000000000000e+00
 0.000000000000000000e+00
 0.000000000000000000e+00
 0.000000000000000000e+00
 0.000000000000000000e+00
 0.000000000000000000e+00
 0.000000000000000000e+00
 0.000000000000000000e+00
 0.000000000000000000e+00
 0.000000000000000000e+00
 0.000000000000000000e+00
 0.000000000000000000e+00
 0.000000000000000000e+00
 0.000000000000000000e+00
 0.000000000000000000e+00
 0.000000000000000000e+00
 0.000000000000000000e+00
 0.000000000000000000e+00
 0.000000000000000000e+00
 0.000000000000000000e+00
 0.000000000000000000e+00
 0.000000000000000000e+00
 0.000000000000000000e+00
 0.000000000000000000e+00
 0.000000000000000000e+00
 </DataArray>
 <DataArray Name="volume" type="Float32" NumberOfComponents="1" format="ascii">
 2.223617499999999952e-03
 2.185332499999999203e-03
 2.147047500000003224e-03
 2.108762499999998138e-03
 2.070477500000000859e-03
 2.032192500000005314e-03
 1.993907499999999361e-03
 1.955622499999995142e-03
 1.917337499999997863e-03
 1.879052499999998849e-03
 1.840767499999999834e-03
 1.802482500000007759e-03
 1.764197499999991398e-03
 1.725912500000006261e-03
 1.687627499999996838e-03
 1.649342499999994355e-03
 1.611057500000002279e-03
 1.572772499999996326e-03
 1.534487500000004251e-03
 1.496202499999998298e-03
 2.223617499999999952e-03
 2.185332499999999636e-03
 2.147047500000002791e-03
 2.108762499999995103e-03
 2.070477500000001293e-03
 2.032192500000005748e-03
 1.993907499999998060e-03
 1.955622499999997311e-03
 1.917337499999997429e-03
 1.879052500000000800e-03
 1.840767499999997666e-03
 1.802482500000009927e-03
 1.764197499999991398e-03
 1.725912500000011682e-03
 1.687627499999996405e-03
 1.649342499999996089e-03
 1.611057500000012905e-03
 1.572772499999989821e-03
 1.534487500000008154e-03
 1.496202499999991576e-03
 2.223617500000001686e-03
 2.185332500000001805e-03
 2.147047500000002357e-03
 2.108762499999997705e-03
 2.070477500000004328e-03
 2.032192500000004013e-03
 1.993907500000000228e-03
 1.955622499999997745e-03
 1.917337500000001766e-03
 1.879052499999999282e-03
 1.840767499999998750e-03
 1.802482500000010795e-03
 1.764197499999991831e-03
 1.725912500000007779e-03
 1.687627499999996188e-03
 1.649342500000001510e-03
 1.611057500000009869e-03
 1.572772499999989387e-03
 1.534487500000007937e-03
 1.496202499999994395e-03
 2.223617499999997783e-03
 2.185332499999997902e-03
 2.147047500000000188e-03
 2.108762499999999873e-03
 2.070477499999998257e-03
 2.032192499999999243e-03
 1.993907500000000228e-03
 1.955622499999998178e-03
 1.917337500000000465e-03
 1.879052499999998415e-03
 1.840767500000000268e-03
 1.802482500000002121e-03
 1.764197499999993132e-03
 1.725912500000008863e-03
 1.687627499999990767e-03
 1.649342500000005630e-03
 1.611057500000002279e-03
 1.572772499999996760e-03
 1.534487499999996878e-03
 1.496202499999995696e-03
 2.223617500000001253e-03
 2.185332500000000070e-03
 2.147047500000003224e-03
 2.108762499999998572e-03
 2.070477499999998257e-03
 2.032192500000004880e-03
 1.993907500000001096e-03
 1.955622499999994709e-03
 1.917337499999997429e-03
 1.879052499999996680e-03
 1.840767500000001135e-03
 1.802482499999999736e-03
 1.764197499999995951e-03
 1.725912500000009297e-03
 1.687627499999989466e-03
 1.649342500000001294e-03
 1.611057500000006616e-03
 1.572772500000000663e-03
 1.534487500000001215e-03
 1.496202499999994395e-03
 2.223617500000002554e-03
 2.185332500000003540e-03
 2.147047500000000622e-03
 2.108762499999999873e-03
 2.070477500000004328e-03
 2.032192500000002712e-03
 1.993907500000003698e-03
 1.955622499999995142e-03
 1.917337500000002417e-03
 1.879052500000001234e-03
 1.840767500000005906e-03
 1.802482500000003422e-03
 1.764197499999998770e-03
 1.725912500000010164e-03
 1.687627499999995971e-03
 1.649342500000001727e-03
 1.611057500000004014e-03
 1.572772499999998928e-03
 1.534487500000004685e-03
 1.496202499999998731e-03
 2.223617500000000385e-03
 2.185332500000001805e-03
 2.147047500000004092e-03
 2.108762499999997271e-03
 2.070477499999999124e-03
 2.032192499999997942e-03
 1.993907499999998927e-03
 1.955622499999993408e-03
 1.917337499999998297e-03
 1.879052499999997548e-03
 1.840767500000000702e-03
 1.802482500000003422e-03
 1.764197499999994433e-03
 1.725912500000007562e-03
 1.687627499999990333e-03
 1.649342499999996957e-03
 1.611057500000008351e-03
 1.572772500000000663e-03
 1.534487500000006853e-03
 1.496202499999992226e-03
 2.223617499999995181e-03
 2.185332499999993565e-03
 2.147047499999998020e-03
 2.108762499999999439e-03
 2.070477500000001726e-03
 2.032192500000002712e-03
 1.993907500000006300e-03
 1.955622499999999046e-03
 1.917337499999996562e-03
 1.879052499999997981e-03
 1.840767499999999401e-03
 1.802482500000003422e-03
 1.764197499999990964e-03
 1.725912500000010598e-03
 1.687627499999987731e-03