<VTKFile type="UnstructuredGrid" byte_order="BigEndian">
<UnstructuredGrid><Piece NumberOfPoints="861" NumberOfCells="800">
<Points>
 <DataArray type="Float32" NumberOfComponents="3" format="ascii">
 0.000000000000000000e+00 0.000000000000000000e+00 0.000000000000000000e+00
 2.470000088214874268e-02 0.000000000000000000e+00 0.000000000000000000e+00
 4.940000176429748535e-02 0.000000000000000000e+00 0.000000000000000000e+00
 7.410000264644622803e-02 0.000000000000000000e+00 0.000000000000000000e+00
 9.880000352859497070e-02 0.000000000000000000e+00 0.000000000000000000e+00
 1.234999969601631165e-01 0.000000000000000000e+00 0.000000000000000000e+00
 1.482000052928924561e-01 0.000000000000000000e+00 0.000000000000000000e+00
 1.729000061750411987e-01 0.000000000000000000e+00 0.000000000000000000e+00
 1.976000070571899414e-01 0.000000000000000000e+00 0.000000000000000000e+00
 2.222999930381774902e-01 0.000000000000000000e+00 0.000000000000000000e+00
 2.469999939203262329e-01 0.000000000000000000e+00 0.000000000000000000e+00
 2.716999948024749756e-01 0.000000000000000000e+00 0.000000000000000000e+00
 2.964000105857849121e-01 0.000000000000000000e+00 0.000000000000000000e+00
 3.210999965667724609e-01 0.000000000000000000e+00 0.000000000000000000e+00
 3.458000123500823975e-01 0.000000000000000000e+00 0.000000000000000000e+00
 3.704999983310699463e-01 0.000000000000000000e+00 0.000000000000000000e+00
 3.952000141143798828e-01 0.000000000000000000e+00 0.000000000000000000e+00
 4.199000000953674316e-01 0.000000000000000000e+00 0.000000000000000000e+00
 4.445999860763549805e-01 0.000000000000000000e+00 0.000000000000000000e+00
 4.693000018596649170e-01 0.000000000000000000e+00 0.000000000000000000e+00
 4.939999878406524658e-01 0.000000000000000000e+00 0.000000000000000000e+00
 5.187000036239624023e-01 0.000000000000000000e+00 0.000000000000000000e+00
 5.433999896049499512e-01 0.000000000000000000e+00 0.000000000000000000e+00
 5.680999755859375000e-01 0.000000000000000000e+00 0.000000000000000000e+00
 5.928000211715698242e-01 0.000000000000000000e+00 0.000000000000000000e+00
 6.175000071525573730e-01 0.000000000000000000e+00 0.000000000000000000e+00
 6.421999931335449219e-01 0.000000000000000000e+00 0.000000000000000000e+00
 6.668999791145324707e-01 0.000000000000000000e+00 0.000000000000000000e+00
 6.916000247001647949e-01 0.000000000000000000e+00 0.000000000000000000e+00
 7.163000106811523438e-01 0.000000000000000000e+00 0.000000000000000000e+00
 7.409999966621398926e-01 0.000000000000000000e+00 0.000000000000000000e+00
 7.656999826431274414e-01 0.000000000000000000e+00 0.000000000000000000e+00
 7.904000282287597656e-01 0.000000000000000000e+00 0.000000000000000000e+00
 8.151000142097473145e-01 0.000000000000000000e+00 0.000000000000000000e+00
 8.398000001907348633e-01 0.000000000000000000e+00 0.000000000000000000e+00
 8.644999861717224121e-01 0.000000000000000000e+00 0.000000000000000000e+00
 8.891999721527099609e-01 0.000000000000000000e+00 0.000000000000000000e+00
 9.139000177383422852e-01 0.000000000000000000e+00 0.000000000000000000e+00
 9.386000037193298340e-01 0.000000000000000000e+00 0.000000000000000000e+00
 9.632999897003173828e-01 0.000000000000000000e+00 0.000000000000000000e+00
 9.879999756813049316e-01 0.000000000000000000e+00 0.000000000000000000e+00
 0.000000000000000000e+00 2.270000055432319641e-02 0.000000000000000000e+00
 2.470000088214874268e-02 2.250625006854534149e-02 0.000000000000000000e+00
 4.940000176429748535e-02 2.231249958276748657e-02 0.000000000000000000e+00
 7.410000264644622803e-02 2.211874909698963165e-02 0.000000000000000000e+00
 9.880000352859497070e-02 2.192500047385692596e-02 0.000000000000000000e+00
 1.234999969601631165e-01 2.173124998807907104e-02 0.000000000000000000e+00
 1.482000052928924561e-01 2.153749950230121613e-02 0.000000000000000000e+00
 1.729000061750411987e-01 2.134375087916851044e-02 0.000000000000000000e+00
 1.976000070571899414e-01 2.115000039339065552e-02 0.000000000000000000e+00
 2.222999930381774902e-01 2.095624990761280060e-02 0.000000000000000000e+00
 2.469999939203262329e-01 2.076249942183494568e-02 0.000000000000000000e+00
 2.716999948024749756e-01 2.056875079870223999e-02 0.000000000000000000e+00
 2.964000105857849121e-01 2.037500031292438507e-02 0.000000000000000000e+00
 3.210999965667724609e-01 2.018124982714653015e-02 0.000000000000000000e+00
 3.458000123500823975e-01 1.998749934136867523e-02 0.000000000000000000e+00
 3.704999983310699463e-01 1.979375071823596954e-02 0.000000000000000000e+00
 3.952000141143798828e-01 1.960000023245811462e-02 0.000000000000000000e+00
 4.199000000953674316e-01 1.940624974668025970e-02 0.000000000000000000e+00
 4.445999860763549805e-01 1.921249926090240479e-02 0.000000000000000000e+00
 4.693000018596649170e-01 1.901875063776969910e-02 0.000000000000000000e+00
 4.939999878406524658e-01 1.882500015199184418e-02 0.000000000000000000e+00
 5.187000036239624023e-01 1.863124966621398926e-02 0.000000000000000000e+00
 5.433999896049499512e-01 1.843749918043613434e-02 0.000000000000000000e+00
 5.680999755859375000e-01 1.824375055730342865e-02 0.000000000000000000e+00
 5.928000211715698242e-01 1.805000007152557373e-02 0.000000000000000000e+00
 6.175000071525573730e-01 1.785624958574771881e-02 0.000000000000000000e+00
 6.421999931335449219e-01 1.766249909996986389e-02 0.000000000000000000e+00
 6.668999791145324707e-01 1.746875047683715820e-02 0.000000000000000000e+00
 6.916000247001647949e-01 1.727499999105930328e-02 0.000000000000000000e+00
 7.163000106811523438e-01 1.708124950528144836e-02 0.000000000000000000e+00
 7.409999966621398926e-01 1.688750088214874268e-02 0.000000000000000000e+00
 7.656999826431274414e-01 1.669375039637088776e-02 0.000000000000000000e+00
 7.904000282287597656e-01 1.649999991059303284e-02 0.000000000000000000e+00
 8.151000142097473145e-01 1.630624942481517792e-02 0.000000000000000000e+00
 8.398000001907348633e-01 1.611250080168247223e-02 0.000000000000000000e+00
 8.644999861717224121e-01 1.591875031590461731e-02 0.000000000000000000e+00
 8.891999721527099609e-01 1.572499983012676239e-02 0.000000000000000000e+00
 9.139000177383422852e-01 1.553125027567148209e-02 0.000000000000000000e+00
 9.386000037193298340e-01 1.533749978989362717e-02 0.000000000000000000e+00
 9.632999897003173828e-01 1.514375023543834686e-02 0.000000000000000000e+00
 9.879999756813049316e-01 1.494999974966049194e-02 0.000000000000000000e+00
 0.000000000000000000e+00 4.540000110864639282e-02 0.000000000000000000e+00
 2.470000088214874268e-02 4.501250013709068298e-02 0.000000000000000000e+00
 4.940000176429748535e-02 4.462499916553497314e-02 0.000000000000000000e+00
 7.410000264644622803e-02 4.423749819397926331e-02 0.000000000000000000e+00
 9.880000352859497070e-02 4.385000094771385193e-02 0.000000000000000000e+00
 1.234999969601631165e-01 4.346249997615814209e-02 0.000000000000000000e+00
 1.482000052928924561e-01 4.307499900460243225e-02 0.000000000000000000e+00
 1.729000061750411987e-01 4.268750175833702087e-02 0.000000000000000000e+00
 1.976000070571899414e-01 4.230000078678131104e-02 0.000000000000000000e+00
 2.222999930381774902e-01 4.191249981522560120e-02 0.000000000000000000e+00
 2.469999939203262329e-01 4.152499884366989136e-02 0.000000000000000000e+00
 2.716999948024749756e-01 4.113750159740447998e-02 0.000000000000000000e+00
 2.964000105857849121e-01 4.075000062584877014e-02 0.000000000000000000e+00
 3.210999965667724609e-01 4.036249965429306030e-02 0.000000000000000000e+00
 3.458000123500823975e-01 3.997499868273735046e-02 0.000000000000000000e+00
 3.704999983310699463e-01 3.958750143647193909e-02 0.000000000000000000e+00
 3.952000141143798828e-01 3.920000046491622925e-02 0.000000000000000000e+00
 4.199000000953674316e-01 3.881249949336051941e-02 0.000000000000000000e+00
 4.445999860763549805e-01 3.842499852180480957e-02 0.000000000000000000e+00
 4.693000018596649170e-01 3.803750127553939819e-02 0.000000000000000000e+00
 4.939999878406524658e-01 3.765000030398368835e-02 0.000000000000000000e+00
 5.187000036239624023e-01 3.726249933242797852e-02 0.000000000000000000e+00
 5.433999896049499512e-01 3.687499836087226868e-02 0.000000000000000000e+00
 5.680999755859375000e-01 3.648750111460685730e-02 0.000000000000000000e+00
 5.928000211715698242e-01 3.610000014305114746e-02 0.000000000000000000e+00
 6.175000071525573730e-01 3.571249917149543762e-02 0.000000000000000000e+00
 6.421999931335449219e-01 3.532499819993972778e-02 0.000000000000000000e+00
 6.668999791145324707e-01 3.493750095367431641e-02 0.000000000000000000e+00
 6.916000247001647949e-01 3.454999998211860657e-02 0.000000000000000000e+00
 7.163000106811523438e-01 3.416249901056289673e-02 0.000000000000000000e+00
 7.409999966621398926e-01 3.377500176429748535e-02 0.000000000000000000e+00
 7.656999826431274414e-01 3.338750079274177551e-02 0.000000000000000000e+00
 7.904000282287597656e-01 3.299999982118606567e-02 0.000000000000000000e+00
 8.151000142097473145e-01 3.261249884963035583e-02 0.000000000000000000e+00
 8.398000001907348633e-01 3.222500160336494446e-02 0.000000000000000000e+00
 8.644999861717224121e-01 3.183750063180923462e-02 0.000000000000000000e+00
 8.891999721527099609e-01 3.144999966025352478e-02 0.000000000000000000e+00
 9.139000177383422852e-01 3.106250055134296417e-02 0.000000000000000000e+00
 9.386000037193298340e-01 3.067499957978725433e-02 0.000000000000000000e+00
 9.632999897003173828e-01 3.028750047087669373e-02 0.000000000000000000e+00
 9.879999756813049316e-01 2.989999949932098389e-02 0.000000000000000000e+00
 0.000000000000000000e+00 6.809999793767929077e-02 0.000000000000000000e+00
 2.470000088214874268e-02 6.751874834299087524e-02 0.000000000000000000e+00
 4.940000176429748535e-02 6.693749874830245972e-02 0.000000000000000000e+00
 7.410000264644622803e-02 6.635624915361404419e-02 0.000000000000000000e+00
 9.880000352859497070e-02 6.577499955892562866e-02 0.000000000000000000e+00
[...]
<CellData>
 <DataArray Name="pos.x" type="Float32" NumberOfComponents="1" format="ascii">
 1.233235632978478200e-02
 3.703220378375864791e-02
 6.173204857692130010e-02
 8.643189063904267722e-02
 1.111317298973991258e-01
 1.358315662766623189e-01
 1.605313996987806358e-01
 1.852312300828554692e-01
 2.099310573450100526e-01
 2.346308813982523889e-01
 2.593307021523265088e-01
 2.840305195135602312e-01
 3.087303333847024045e-01
 3.334301436647483241e-01
 3.581299502487559905e-01
 3.828297530276592031e-01
 4.075295518880510670e-01
 4.322293467119826538e-01
 4.569291373767093711e-01
 4.816289237544743584e-01
 5.063287057122199952e-01
 5.310284831113357695e-01
 5.557282558073487477e-01
 5.804280236496195400e-01
 6.051277864809967433e-01
 6.298275441374865391e-01
 6.545272964478437983e-01
 6.792270432331956043e-01
 7.039267843065906138e-01
 7.286265194725545236e-01
 7.533262485265841413e-01
 7.780259712546286899e-01
 8.027256874325277014e-01
 8.274253968253927338e-01
 8.521250991869946390e-01
 8.768247942590051691e-01
 9.015244817703145230e-01
 9.262241614361879094e-01
 9.509238329574204451e-01
 9.756234960193795880e-01
 1.233235632978478200e-02
 3.703220378375865485e-02
 6.173204857692128622e-02
 8.643189063904270497e-02
 1.111317298973992368e-01
 1.358315662766623466e-01
 1.605313996987806080e-01
 1.852312300828554692e-01
 2.099310573450099970e-01
 2.346308813982523889e-01
 2.593307021523259537e-01
 2.840305195135594540e-01
 3.087303333847029041e-01
 3.334301436647480466e-01
 3.581299502487561015e-01
 3.828297530276595917e-01
 4.075295518880521772e-01
 4.322293467119823207e-01
 4.569291373767084830e-01
 4.816289237544743584e-01
 5.063287057122192181e-01
 5.310284831113342152e-01
 5.557282558073498580e-01
 5.804280236496189849e-01
 6.051277864809984086e-01
 6.298275441374869832e-01
 6.545272964478426880e-01
 6.792270432331958263e-01
 7.039267843065916130e-01
 7.286265194725523031e-01
 7.533262485265810326e-01
 7.780259712546293560e-01
 8.027256874325261471e-01
 8.274253968253989511e-01
 8.521250991869925295e-01
 8.768247942590003952e-01
 9.015244817703179647e-01
 9.262241614361865771e-01
 9.509238329574201121e-01
 9.756234960193813643e-01
 1.233235632978477679e-02
 3.703220378375865485e-02
 6.173204857692125153e-02
 8.643189063904262170e-02
 1.111317298973991952e-01
 1.358315662766621246e-01
 1.605313996987808023e-01
 1.852312300828553304e-01
 2.099310573450100803e-01
 2.346308813982522501e-01
 2.593307021523268419e-01
 2.840305195135588434e-01
 3.087303333847030706e-01
 3.334301436647474914e-01
 3.581299502487558239e-01
 3.828297530276594252e-01
 4.075295518880516221e-01
 4.322293467119810995e-01
 4.569291373767092601e-01
 4.816289237544749691e-01
 5.063287057122203283e-01
 5.310284831113364357e-01
 5.557282558073455281e-01
 5.804280236496176526e-01
 6.051277864809998519e-01
 6.298275441374884265e-01
 6.545272964478437983e-01
 6.792270432331937169e-01
 7.039267843065923902e-01
 7.286265194725549676e-01
 7.533262485265840303e-01
 7.780259712546282458e-01
 8.027256874325262581e-01
 8.274253968253963976e-01
 8.521250991869937508e-01
 8.768247942589975086e-01
 9.015244817703177427e-01
 9.262241614361834685e-01
 9.509238329574212223e-01
 9.756234960193819195e-01
 1.233235632978478893e-02
 3.703220378375866179e-02
 6.173204857692130704e-02
 8.643189063904262170e-02
 1.111317298973991952e-01
 1.358315662766623466e-01
 1.605313996987805247e-01
 1.852312300828551639e-01
 2.099310573450103579e-01
 2.346308813982519725e-01
 2.593307021523265088e-01
 2.840305195135604532e-01
 3.087303333847017939e-01
 3.334301436647474914e-01
 3.581299502487567676e-01
 3.828297530276582039e-01
 4.075295518880519552e-01
 4.322293467119801003e-01
 4.569291373767102593e-01
 4.816289237544738033e-01
 5.063287057122216606e-01
 5.310284831113355475e-01
 5.557282558073478596e-01
 5.804280236496212053e-01
 6.051277864809964102e-01
 6.298275441374842076e-01
 6.545272964478467959e-01
 6.792270432331946051e-01
 7.039267843065882824e-01
 7.286265194725541905e-01
 7.533262485265834751e-01
 7.780259712546281348e-01
 8.027256874325191527e-01
 8.274253968254033920e-01
 8.521250991869875335e-01
 8.768247942590040589e-01
 9.015244817703091940e-01
 9.262241614361927944e-01
 9.509238329574221105e-01
 9.756234960193861383e-01
 1.233235632978478546e-02
 3.703220378375866179e-02
 6.173204857692126540e-02
 8.643189063904270497e-02
 1.111317298973991258e-01
 1.358315662766623466e-01
 1.605313996987807190e-01
 1.852312300828553027e-01
 2.099310573450103856e-01
 2.346308813982521668e-01
 2.593307021523262867e-01
 2.840305195135598426e-01
 3.087303333847020159e-01
 3.334301436647479910e-01
 3.581299502487567676e-01
 3.828297530276592031e-01
 4.075295518880526768e-01
 4.322293467119805443e-01
 4.569291373767109810e-01
 4.816289237544730262e-01
 5.063287057122194401e-01
 5.310284831113362136e-01
 5.557282558073487477e-01
 5.804280236496196510e-01
 6.051277864809976315e-01
 6.298275441374864281e-01
 6.545272964478422439e-01
 6.792270432331968255e-01
 7.039267843065877273e-01
 7.286265194725571881e-01
 7.533262485265851405e-01
 7.780259712546322426e-01
 8.027256874325217062e-01
 8.274253968254074998e-01
 8.521250991869850910e-01
 8.768247942590037258e-01
 9.015244817703174096e-01
 9.262241614361821362e-01
 9.509238329574265514e-01
 9.756234960193863603e-01
 1.233235632978477679e-02
 3.703220378375864791e-02
 6.173204857692126540e-02
 8.643189063904259395e-02
 1.111317298973992229e-01
 1.358315662766623466e-01
 1.605313996987804970e-01
 1.852312300828554970e-01
 2.099310573450099138e-01
 2.346308813982521946e-01
 2.593307021523262312e-01
 2.840305195135602867e-01
 3.087303333847025710e-01
 3.334301436647468253e-01
 3.581299502487569342e-01
 3.828297530276589811e-01
 4.075295518880516221e-01
 4.322293467119817101e-01
 4.569291373767093711e-01
 4.816289237544733592e-01
 5.063287057122199952e-01
 5.310284831113373238e-01
 5.557282558073494139e-01
 5.804280236496189849e-01
 6.051277864809961882e-01
 6.298275441374856509e-01
 6.545272964478433542e-01
 6.792270432331970476e-01
 7.039267843065916130e-01
 7.286265194725576322e-01
 7.533262485265858066e-01
 7.780259712546262474e-01
 8.027256874325221503e-01
 8.274253968254008385e-01
 8.521250991869925295e-01
 8.768247942589995070e-01
 9.015244817703129687e-01
 9.262241614361834685e-01
 9.509238329574215554e-01
 9.756234960193856942e-01
 1.233235632978477853e-02
 3.703220378375866179e-02
 6.173204857692127234e-02
 8.643189063904262170e-02
 1.111317298973992229e-01
 1.358315662766624299e-01
 1.605313996987804415e-01
 1.852312300828554970e-01
 2.099310573450099970e-01
 2.346308813982519725e-01
 2.593307021523269529e-01
 2.840305195135596761e-01
 3.087303333847024600e-01
 3.334301436647480466e-01
 3.581299502487563235e-01
 3.828297530276594252e-01
 4.075295518880513446e-01
 4.322293467119806554e-01
 4.569291373767100928e-01
 4.816289237544736368e-01
 5.063287057122195511e-01
 5.310284831113358806e-01
 5.557282558073494139e-01
 5.804280236496202061e-01
 6.051277864809978535e-01
 6.298275441374867611e-01
 6.545272964478431321e-01
 6.792270432331968255e-01
 7.039267843065926122e-01
 7.286265194725547456e-01
 7.533262485265802555e-01
 7.780259712546293560e-01
 8.027256874325212621e-01
 8.274253968253998393e-01
 8.521250991869928626e-01
 8.768247942590028376e-01
 9.015244817703145230e-01
 9.262241614361874653e-01
 9.509238329574197790e-01
 9.756234960193821415e-01
 1.233235632978478893e-02
 3.703220378375862709e-02
 6.173204857692133479e-02
 8.643189063904255232e-02
 1.111317298973992368e-01
 1.358315662766624576e-01
 1.605313996987804970e-01
 1.852312300828552472e-01
 2.099310573450102191e-01
 2.346308813982521946e-01
 2.593307021523265088e-01
 2.840305195135602312e-01
 3.087303333847026265e-01
 3.334301436647464367e-01
 3.581299502487562125e-01
 3.828297530276585925e-01
 4.075295518880532319e-01
 4.322293467119798227e-01
 4.569291373767108144e-01
 4.816289237544733037e-01
 5.063287057122204393e-01
 5.310284831113342152e-01
 5.557282558073505241e-01
 5.804280236496234258e-01
 6.051277864809961882e-01
 6.298275441374864281e-01
 6.545272964478430211e-01
 6.792270432331932728e-01
 7.039267843065912800e-01
 7.286265194725545236e-01
 7.533262485265906916e-01
 7.780259712546311324e-01
 8.027256874325235936e-01
 8.274253968253989511e-01
 8.521250991869889768e-01
 8.768247942590016164e-01
 9.015244817703153002e-01
 9.262241614361901298e-01
 9.509238329574222215e-01
 9.756234960193854722e-01
 1.233235632978478200e-02
 3.703220378375866179e-02
 6.173204857692127234e-02
 8.643189063904259395e-02
 1.111317298973993339e-01
 1.358315662766623189e-01
 1.605313996987805247e-01
 1.852312300828554692e-01
 2.099310573450100526e-01
 2.346308813982521668e-01
 2.593307021523271194e-01
 2.840305195135597316e-01
 3.087303333847025710e-01
 3.334301436647478800e-01
 3.581299502487563791e-01
 3.828297530276585370e-01
 4.075295518880523438e-01
 4.322293467119834864e-01
 4.569291373767099818e-01
 4.816289237544729152e-01
 5.063287057122208834e-01
 5.310284831113364357e-01
 5.557282558073483036e-01
 5.804280236496180967e-01
 6.051277864809978535e-01
 6.298275441374839856e-01
 6.545272964478449085e-01
 6.792270432331953822e-01
 7.039267843065922792e-01
 7.286265194725562999e-01
 7.533262485265845854e-01
 7.780259712546271356e-01
 8.027256874325229274e-01
 8.274253968253995062e-01
 8.521250991869925295e-01
 8.768247942589990629e-01
 9.015244817703158553e-01
 9.262241614361887976e-01
 9.509238329574233317e-01
 9.756234960193856942e-01
 1.233235632978478200e-02
 3.703220378375864791e-02
 6.173204857692130010e-02
 8.643189063904252456e-02
 1.111317298973992784e-01
 1.358315662766623466e-01
 1.605313996987807190e-01
 1.852312300828549141e-01
 2.099310573450104966e-01
 2.346308813982524166e-01
 2.593307021523268419e-01
 2.840305195135598981e-01
 3.087303333847022380e-01
 3.334301436647483241e-01
 3.581299502487567676e-01
 3.828297530276584260e-01
 4.075295518880521772e-01
 4.322293467119810995e-01
 4.569291373767094822e-01
 4.816289237544719715e-01
 5.063287057122209944e-01
 5.310284831113347703e-01
 5.557282558073470824e-01
 5.804280236496180967e-01
 6.051277864809981866e-01
 6.298275441374876493e-01
 6.545272964478422439e-01
 6.792270432331967145e-01
 7.039267843065908359e-01
 7.286265194725589645e-01
 7.533262485265854735e-01
 7.780259712546241380e-01
 8.027256874325235936e-01
 8.274253968254003944e-01
 8.521250991869936398e-01
 8.768247942590028376e-01
 9.015244817703127467e-01
 9.262241614361809150e-01
 9.509238329574284387e-01
 9.756234960193831407e-01
 1.233235632978479240e-02
 3.703220378375862709e-02
 6.173204857692128622e-02
 8.643189063904270497e-02
 1.111317298973991952e-01
 1.358315662766623189e-01
 1.605313996987808300e-01
 1.852312300828552194e-01
 2.099310573450103579e-01
 2.346308813982521113e-01
 2.593307021523266753e-01
 2.840305195135602867e-01
 3.087303333847030706e-01
 3.334301436647474359e-01
 3.581299502487562125e-01
 3.828297530276588700e-01
 4.075295518880515111e-01
 4.322293467119815435e-01
 4.569291373767100928e-01
 4.816289237544717494e-01
 5.063287057122192181e-01
 5.310284831113362136e-01
 5.557282558073475265e-01
 5.804280236496182077e-01
 6.051277864809984086e-01
 6.298275441374858730e-01
 6.545272964478439093e-01
 6.792270432331973806e-01
 7.039267843065918351e-01
 7.286265194725559668e-01
 7.533262485265859176e-01
 7.780259712546293560e-01
 8.027256874325248148e-01
 8.274253968253977298e-01
 8.521250991869966374e-01
 8.768247942590003952e-01
 9.015244817703114144e-01
 9.262241614361805819e-01
 9.509238329574168924e-01
 9.756234960193833627e-01
 1.233235632978476985e-02
 3.703220378375867566e-02
 6.173204857692128622e-02
 8.643189063904266334e-02
 1.111317298973992229e-01
 1.358315662766622911e-01
 1.605313996987806913e-01
 1.852312300828550806e-01
 2.099310573450099970e-01
 2.346308813982520558e-01
 2.593307021523263423e-01
 2.840305195135601202e-01
 3.087303333847030151e-01
 3.334301436647473249e-01
 3.581299502487569897e-01
 3.828297530276592031e-01
 4.075295518880521772e-01
 4.322293467119817656e-01
 4.569291373767100928e-01
 4.816289237544745250e-01
 5.063287057122203283e-01
 5.310284831113366577e-01
 5.557282558073479706e-01
 5.804280236496175416e-01
 6.051277864809984086e-01
 6.298275441374877603e-01
 6.545272964478421329e-01
 6.792270432331963814e-01
 7.039267843065910579e-01
 7.286265194725558558e-01
 7.533262485265814767e-01
 7.780259712546292450e-01
 8.027256874325255920e-01
 8.274253968253963976e-01
 8.521250991869883107e-01
 8.768247942589992849e-01
 9.015244817703182978e-01
 9.262241614361871322e-01
 9.509238329574224435e-01
 9.756234960193896910e-01
 1.233235632978479240e-02
 3.703220378375864791e-02
 6.173204857692126540e-02
 8.643189063904270497e-02
 1.111317298973991674e-01
 1.358315662766624021e-01
 1.605313996987804970e-01
 1.852312300828551639e-01
 2.099310573450103024e-01
 2.346308813982522501e-01
 2.593307021523263423e-01
 2.840305195135601202e-01
 3.087303333847022380e-01
 3.334301436647474359e-01
 3.581299502487573783e-01
 3.828297530276585370e-01
 4.075295518880514556e-01
 4.322293467119820431e-01
 4.569291373767095377e-01
 4.816289237544741919e-01
 5.063287057122191070e-01
 5.310284831113365467e-01
 5.557282558073491918e-01
 5.804280236496189849e-01
 6.051277864809994078e-01
 6.298275441374836525e-01
 6.545272964478452415e-01
 6.792270432331954932e-01
 7.039267843065929453e-01
 7.286265194725517480e-01
 7.533262485265836972e-01
 7.780259712546285789e-01
 8.027256874325257030e-01
 8.274253968253987290e-01
 8.521250991869936398e-01
 8.768247942590019495e-01
 9.015244817703170765e-01
 9.262241614361963471e-01
 9.509238329574256632e-01
 9.756234960193861383e-01
 1.233235632978476985e-02
 3.703220378375865485e-02
 6.173204857692130704e-02
 8.643189063904258007e-02
 1.111317298973991952e-01
 1.358315662766623466e-01
 1.605313996987807190e-01
 1.852312300828554137e-01
 2.099310573450103856e-01
 2.346308813982518893e-01
 2.593307021523265088e-01
 2.840305195135603422e-01
 3.087303333847024045e-01
 3.334301436647475469e-01
 3.581299502487557129e-01
 3.828297530276595917e-01
 4.075295518880512891e-01
 4.322293467119819876e-01
 4.569291373767114250e-01
 4.816289237544738033e-01
 5.063287057122191070e-01
 5.310284831113353254e-01
 5.557282558073487477e-01
 5.804280236496203171e-01
 6.051277864809976315e-01
 6.298275441374866501e-01
 6.545272964478454636e-01
 6.792270432331948271e-01
 7.039267843065905028e-01
 7.286265194725523031e-01
 7.533262485265797004e-01
 7.780259712546280237e-01
 8.027256874325274794e-01
 8.274253968253957314e-01
 8.521250991869915303e-01
 8.768247942590025046e-01
 9.015244817703198521e-01
 9.262241614361808040e-01
 9.509238329574183357e-01
 9.756234960193821415e-01
 1.233235632978479934e-02
 3.703220378375862015e-02
 6.173204857692132091e-02
 8.643189063904255232e-02
 1.111317298973992784e-01
 1.358315662766622911e-01
 1.605313996987804970e-01
 1.852312300828555802e-01
 2.099310573450097750e-01
 2.346308813982525554e-01
 2.593307021523255096e-01
 2.840305195135609528e-01
 3.087303333847022380e-01
 3.334301436647475469e-01
 3.581299502487555464e-01
 3.828297530276594252e-01
 4.075295518880518997e-01
 4.322293467119836530e-01
 4.569291373767073172e-01
 4.816289237544741919e-01
 5.063287057122217716e-01
 5.310284831113356585e-01
 5.557282558073498580e-01
 5.804280236496198730e-01
 6.051277864809961882e-01
 6.298275441374865391e-01
 6.545272964478464628e-01
 6.792270432331946051e-01
 7.039267843065912800e-01
 7.286265194725551897e-01
 7.533262485265829200e-01
 7.780259712546281348e-01
 8.027256874325243707e-01
 8.274253968254001723e-01
 8.521250991869913083e-01
 8.768247942590025046e-01
 9.015244817703191860e-01
 9.262241614361835795e-01
 9.509238329574186688e-01
 9.756234960193803651e-01
 1.233235632978477679e-02
 3.703220378375866179e-02
 6.173204857692125153e-02
 8.643189063904259395e-02
 1.111317298973992784e-01
 1.358315662766622911e-01
 1.605313996987807190e-01
 1.852312300828551084e-01
 2.099310573450099415e-01
 2.346308813982522501e-01
 2.593307021523258427e-01
 2.840305195135605087e-01
 3.087303333847022380e-01
 3.334301436647475469e-01
 3.581299502487552688e-01
 3.828297530276598137e-01
 4.075295518880513446e-01
 4.322293467119818766e-01
 4.569291373767099262e-01
 4.816289237544736368e-01
 5.063287057122198842e-01
 5.310284831113362136e-01
 5.557282558073510792e-01
 5.804280236496179857e-01
 6.051277864809967433e-01
 6.298275441374893147e-01
 6.545272964478437983e-01
 6.792270432331947161e-01
 7.039267843065931674e-01
 7.286265194725503047e-01
 7.533262485265868058e-01
 7.780259712546242490e-01
 8.027256874325261471e-01
 8.274253968253986180e-01
 8.521250991869916414e-01
 8.768247942589963984e-01
 9.015244817703189639e-01
 9.262241614361853559e-01
 9.509238329574188908e-01
 9.756234960193884698e-01
 1.233235632978478546e-02
 3.703220378375863403e-02
 6.173204857692132091e-02
 8.643189063904255232e-02
 1.111317298973991952e-01
 1.358315662766624021e-01
 1.605313996987803582e-01
 1.852312300828552194e-01
 2.099310573450103579e-01
 2.346308813982524166e-01
 2.593307021523259537e-01
 2.840305195135605643e-01
 3.087303333847027931e-01
 3.334301436647468808e-01
 3.581299502487561570e-01
 3.828297530276596472e-01
 4.075295518880521772e-01
 4.322293467119806554e-01
 4.569291373767108699e-01
 4.816289237544721935e-01
 5.063287057122187740e-01
 5.310284831113355475e-01
 5.557282558073514123e-01
 5.804280236496196510e-01
 6.051277864809956331e-01
 6.298275441374888706e-01
 6.545272964478446864e-01
 6.792270432331951602e-01
 7.039267843065919461e-01
 7.286265194725516370e-01
 7.533262485265872499e-01
 7.780259712546291340e-01
 8.027256874325261471e-01
 8.274253968253986180e-01
 8.521250991869968594e-01
 8.768247942590055022e-01
 9.015244817703162994e-01
 9.262241614361873543e-01
 9.509238329574168924e-01
 9.756234960193870265e-01
 1.233235632978476638e-02
 3.703220378375867566e-02
 6.173204857692126540e-02
 8.643189063904264946e-02
 1.111317298973992784e-01
 1.358315662766623466e-01
 1.605313996987807190e-01
 1.852312300828553582e-01
 2.099310573450099415e-01
 2.346308813982526109e-01
 2.593307021523255651e-01
 2.840305195135606753e-01
 3.087303333847030151e-01
 3.334301436647468808e-01
 3.581299502487561570e-01
 3.828297530276585925e-01
 4.075295518880514556e-01
 4.322293467119808219e-01
 4.569291373767103703e-01
 4.816289237544730817e-01
 5.063287057122195511e-01
 5.310284831113353254e-01
 5.557282558073488588e-01
 5.804280236496184298e-01
 6.051277864809967433e-01
 6.298275441374896477e-01
 6.545272964478446864e-01
 6.792270432331954932e-01
 7.039267843065918351e-01
 7.286265194725517480e-01
 7.533262485265868058e-01
 7.780259712546264694e-01
 8.027256874325238156e-01
 8.274253968253978408e-01
 8.521250991869990798e-01
 8.768247942590021715e-01
 9.015244817703174096e-01
 9.262241614361796938e-01
 9.509238329574225546e-01
 9.756234960193839179e-01
 1.233235632978476985e-02
 3.703220378375864791e-02
 6.173204857692128622e-02
 8.643189063904259395e-02
 1.111317298973992368e-01
 1.358315662766623466e-01
 1.605313996987806080e-01
 1.852312300828553027e-01
 2.099310573450103024e-01
 2.346308813982523889e-01
 2.593307021523265088e-01
 2.840305195135598981e-01
 3.087303333847024045e-01
 3.334301436647472694e-01
 3.581299502487557129e-01
 3.828297530276604244e-01
 4.075295518880516221e-01
 4.322293467119808774e-01
 4.569291373767117026e-01
 4.816289237544733592e-01
 5.063287057122192181e-01
 5.310284831113331050e-01
 5.557282558073486367e-01
 5.804280236496210943e-01
 6.051277864809970763e-01
 6.298275441374878714e-01
 6.545272964478431321e-01
 6.792270432331954932e-01
 7.039267843065906138e-01
 7.286265194725557448e-01
 7.533262485265851405e-01
 7.780259712546252482e-01
 8.027256874325280345e-01
 8.274253968254046132e-01
 8.521250991869934177e-01
 8.768247942589999511e-01
 9.015244817703161884e-01
 9.262241614361905739e-01
 9.509238329574207782e-01
 9.756234960193836958e-01
 1.233235632978479240e-02
 3.703220378375864791e-02
 6.173204857692132091e-02
 8.643189063904255232e-02
 1.111317298973992368e-01