<VTKFile type="UnstructuredGrid" byte_order="BigEndian">
<UnstructuredGrid><Piece NumberOfPoints="231" NumberOfCells="200">
<Points>
 <DataArray type="Float32" NumberOfComponents="3" format="ascii">
 0.000000000000000000e+00 0.000000000000000000e+00 0.000000000000000000e+00
 4.940000176429748535e-02 0.000000000000000000e+00 0.000000000000000000e+00
 9.880000352859497070e-02 0.000000000000000000e+00 0.000000000000000000e+00
 1.482000052928924561e-01 0.000000000000000000e+00 0.000000000000000000e+00
 1.976000070571899414e-01 0.000000000000000000e+00 0.000000000000000000e+00
 2.469999939203262329e-01 0.000000000000000000e+00 0.000000000000000000e+00
 2.964000105857849121e-01 0.000000000000000000e+00 0.000000000000000000e+00
 3.458000123500823975e-01 0.000000000000000000e+00 0.000000000000000000e+00
 3.952000141143798828e-01 0.000000000000000000e+00 0.000000000000000000e+00
 4.445999860763549805e-01 0.000000000000000000e+00 0.000000000000000000e+00
 4.939999878406524658e-01 0.000000000000000000e+00 0.000000000000000000e+00
 5.433999896049499512e-01 0.000000000000000000e+00 0.000000000000000000e+00
 5.928000211715698242e-01 0.000000000000000000e+00 0.000000000000000000e+00
 6.421999931335449219e-01 0.000000000000000000e+00 0.000000000000000000e+00
 6.916000247001647949e-01 0.000000000000000000e+00 0.000000000000000000e+00
 7.409999966621398926e-01 0.000000000000000000e+00 0.000000000000000000e+00
 7.904000282287597656e-01 0.000000000000000000e+00 0.000000000000000000e+00
 8.398000001907348633e-01 0.000000000000000000e+00 0.000000000000000000e+00
 8.891999721527099609e-01 0.000000000000000000e+00 0.000000000000000000e+00
 9.386000037193298340e-01 0.000000000000000000e+00 0.000000000000000000e+00
 9.879999756813049316e-01 0.000000000000000000e+00 0.000000000000000000e+00
 0.000000000000000000e+00 5.409999936819076538e-02 0.000000000000000000e+00
 4.940000176429748535e-02 5.332500115036964417e-02 0.000000000000000000e+00
 9.880000352859497070e-02 5.254999920725822449e-02 0.000000000000000000e+00
 1.482000052928924561e-01 5.177500098943710327e-02 0.000000000000000000e+00
 1.976000070571899414e-01 5.099999904632568359e-02 0.000000000000000000e+00
 2.469999939203262329e-01 5.022500082850456238e-02 0.000000000000000000e+00
 2.964000105857849121e-01 4.944999888539314270e-02 0.000000000000000000e+00
 3.458000123500823975e-01 4.867500066757202148e-02 0.000000000000000000e+00
 3.952000141143798828e-01 4.789999872446060181e-02 0.000000000000000000e+00
 4.445999860763549805e-01 4.712500050663948059e-02 0.000000000000000000e+00
 4.939999878406524658e-01 4.634999856352806091e-02 0.000000000000000000e+00
 5.433999896049499512e-01 4.557500034570693970e-02 0.000000000000000000e+00
 5.928000211715698242e-01 4.479999840259552002e-02 0.000000000000000000e+00
 6.421999931335449219e-01 4.402500018477439880e-02 0.000000000000000000e+00
 6.916000247001647949e-01 4.324999824166297913e-02 0.000000000000000000e+00
 7.409999966621398926e-01 4.247500002384185791e-02 0.000000000000000000e+00
 7.904000282287597656e-01 4.170000180602073669e-02 0.000000000000000000e+00
 8.398000001907348633e-01 4.092499986290931702e-02 0.000000000000000000e+00
 8.891999721527099609e-01 4.015000164508819580e-02 0.000000000000000000e+00
 9.386000037193298340e-01 3.937499970197677612e-02 0.000000000000000000e+00
 9.879999756813049316e-01 3.860000148415565491e-02 0.000000000000000000e+00
 0.000000000000000000e+00 1.081999987363815308e-01 0.000000000000000000e+00
 4.940000176429748535e-02 1.066500023007392883e-01 0.000000000000000000e+00
 9.880000352859497070e-02 1.050999984145164490e-01 0.000000000000000000e+00
 1.482000052928924561e-01 1.035500019788742065e-01 0.000000000000000000e+00
 1.976000070571899414e-01 1.019999980926513672e-01 0.000000000000000000e+00
 2.469999939203262329e-01 1.004500016570091248e-01 0.000000000000000000e+00
 2.964000105857849121e-01 9.889999777078628540e-02 0.000000000000000000e+00
 3.458000123500823975e-01 9.735000133514404297e-02 0.000000000000000000e+00
 3.952000141143798828e-01 9.579999744892120361e-02 0.000000000000000000e+00
 4.445999860763549805e-01 9.425000101327896118e-02 0.000000000000000000e+00
 4.939999878406524658e-01 9.269999712705612183e-02 0.000000000000000000e+00
 5.433999896049499512e-01 9.115000069141387939e-02 0.000000000000000000e+00
 5.928000211715698242e-01 8.959999680519104004e-02 0.000000000000000000e+00
 6.421999931335449219e-01 8.805000036954879761e-02 0.000000000000000000e+00
 6.916000247001647949e-01 8.649999648332595825e-02 0.000000000000000000e+00
 7.409999966621398926e-01 8.495000004768371582e-02 0.000000000000000000e+00
 7.904000282287597656e-01 8.340000361204147339e-02 0.000000000000000000e+00
 8.398000001907348633e-01 8.184999972581863403e-02 0.000000000000000000e+00
 8.891999721527099609e-01 8.030000329017639160e-02 0.000000000000000000e+00
 9.386000037193298340e-01 7.874999940395355225e-02 0.000000000000000000e+00
 9.879999756813049316e-01 7.720000296831130981e-02 0.000000000000000000e+00
 0.000000000000000000e+00 1.623000055551528931e-01 0.000000000000000000e+00
 4.940000176429748535e-02 1.599750071763992310e-01 0.000000000000000000e+00
 9.880000352859497070e-02 1.576499938964843750e-01 0.000000000000000000e+00
 1.482000052928924561e-01 1.553249955177307129e-01 0.000000000000000000e+00
 1.976000070571899414e-01 1.529999971389770508e-01 0.000000000000000000e+00
 2.469999939203262329e-01 1.506749987602233887e-01 0.000000000000000000e+00
 2.964000105857849121e-01 1.483500003814697266e-01 0.000000000000000000e+00
 3.458000123500823975e-01 1.460250020027160645e-01 0.000000000000000000e+00
 3.952000141143798828e-01 1.437000036239624023e-01 0.000000000000000000e+00
 4.445999860763549805e-01 1.413750052452087402e-01 0.000000000000000000e+00
 4.939999878406524658e-01 1.390500068664550781e-01 0.000000000000000000e+00
 5.433999896049499512e-01 1.367249935865402222e-01 0.000000000000000000e+00
 5.928000211715698242e-01 1.343999952077865601e-01 0.000000000000000000e+00
 6.421999931335449219e-01 1.320749968290328979e-01 0.000000000000000000e+00
 6.916000247001647949e-01 1.297499984502792358e-01 0.000000000000000000e+00
 7.409999966621398926e-01 1.274250000715255737e-01 0.000000000000000000e+00
 7.904000282287597656e-01 1.251000016927719116e-01 0.000000000000000000e+00
 8.398000001907348633e-01 1.227750033140182495e-01 0.000000000000000000e+00
 8.891999721527099609e-01 1.204499974846839905e-01 0.000000000000000000e+00
 9.386000037193298340e-01 1.181249991059303284e-01 0.000000000000000000e+00
 9.879999756813049316e-01 1.158000007271766663e-01 0.000000000000000000e+00
 0.000000000000000000e+00 2.163999974727630615e-01 0.000000000000000000e+00
 4.940000176429748535e-02 2.133000046014785767e-01 0.000000000000000000e+00
 9.880000352859497070e-02 2.101999968290328979e-01 0.000000000000000000e+00
 1.482000052928924561e-01 2.071000039577484131e-01 0.000000000000000000e+00
 1.976000070571899414e-01 2.039999961853027344e-01 0.000000000000000000e+00
 2.469999939203262329e-01 2.009000033140182495e-01 0.000000000000000000e+00
 2.964000105857849121e-01 1.977999955415725708e-01 0.000000000000000000e+00
 3.458000123500823975e-01 1.947000026702880859e-01 0.000000000000000000e+00
 3.952000141143798828e-01 1.915999948978424072e-01 0.000000000000000000e+00
 4.445999860763549805e-01 1.885000020265579224e-01 0.000000000000000000e+00
 4.939999878406524658e-01 1.853999942541122437e-01 0.000000000000000000e+00
 5.433999896049499512e-01 1.823000013828277588e-01 0.000000000000000000e+00
 5.928000211715698242e-01 1.791999936103820801e-01 0.000000000000000000e+00
 6.421999931335449219e-01 1.761000007390975952e-01 0.000000000000000000e+00
 6.916000247001647949e-01 1.729999929666519165e-01 0.000000000000000000e+00
 7.409999966621398926e-01 1.699000000953674316e-01 0.000000000000000000e+00
 7.904000282287597656e-01 1.668000072240829468e-01 0.000000000000000000e+00
 8.398000001907348633e-01 1.636999994516372681e-01 0.000000000000000000e+00
 8.891999721527099609e-01 1.606000065803527832e-01 0.000000000000000000e+00
 9.386000037193298340e-01 1.574999988079071045e-01 0.000000000000000000e+00
 9.879999756813049316e-01 1.544000059366226196e-01 0.000000000000000000e+00
 0.000000000000000000e+00 2.705000042915344238e-01 0.000000000000000000e+00
 4.940000176429748535e-02 2.666249871253967285e-01 0.000000000000000000e+00
 9.880000352859497070e-02 2.627499997615814209e-01 0.000000000000000000e+00
 1.482000052928924561e-01 2.588750123977661133e-01 0.000000000000000000e+00
 1.976000070571899414e-01 2.549999952316284180e-01 0.000000000000000000e+00
 2.469999939203262329e-01 2.511250078678131104e-01 0.000000000000000000e+00
 2.964000105857849121e-01 2.472500056028366089e-01 0.000000000000000000e+00
 3.458000123500823975e-01 2.433750033378601074e-01 0.000000000000000000e+00
 3.952000141143798828e-01 2.395000010728836060e-01 0.000000000000000000e+00
 4.445999860763549805e-01 2.356249988079071045e-01 0.000000000000000000e+00
 4.939999878406524658e-01 2.317499965429306030e-01 0.000000000000000000e+00
 5.433999896049499512e-01 2.278749942779541016e-01 0.000000000000000000e+00
 5.928000211715698242e-01 2.240000069141387939e-01 0.000000000000000000e+00
 6.421999931335449219e-01 2.201250046491622925e-01 0.000000000000000000e+00
 6.916000247001647949e-01 2.162500023841857910e-01 0.000000000000000000e+00
 7.409999966621398926e-01 2.123750001192092896e-01 0.000000000000000000e+00
 7.904000282287597656e-01 2.084999978542327881e-01 0.000000000000000000e+00
 8.398000001907348633e-01 2.046249955892562866e-01 0.000000000000000000e+00
 8.891999721527099609e-01 2.007499933242797852e-01 0.000000000000000000e+00
 9.386000037193298340e-01 1.968750059604644775e-01 0.000000000000000000e+00
 9.879999756813049316e-01 1.930000036954879761e-01 0.000000000000000000e+00
 0.000000000000000000e+00 3.246000111103057861e-01 0.000000000000000000e+00
 4.940000176429748535e-02 3.199500143527984619e-01 0.000000000000000000e+00
[...]
<CellData>
 <DataArray Name="pos.x" type="Float32" NumberOfComponents="1" format="ascii">
 2.464060197036692032e-02
 7.403973238882327612e-02
 1.234388369678089542e-01
 1.728379145382308302e-01
 2.222369638593890695e-01
 2.716359836134101258e-01
 3.210349723991506310e-01
 3.704339287255161706e-01
 4.198328510041218209e-01
 4.692317375412320413e-01
 5.186305865288732830e-01
 5.680293960350382143e-01
 6.174281639928711485e-01
 6.668268881886739718e-01
 7.162255662486644026e-01
 7.656241956241944813e-01
 8.150227735753932112e-01
 8.644212971528402178e-01
 9.138197631772009277e-01
 9.632181682163107883e-01
 2.464060197036692032e-02
 7.403973238882327612e-02
 1.234388369678089542e-01
 1.728379145382308302e-01
 2.222369638593890417e-01
 2.716359836134105143e-01
 3.210349723991512416e-01
 3.704339287255154489e-01
 4.198328510041218209e-01
 4.692317375412313751e-01
 5.186305865288735051e-01
 5.680293960350391025e-01
 6.174281639928708154e-01
 6.668268881886754151e-01
 7.162255662486622931e-01
 7.656241956241955915e-01
 8.150227735753887703e-01
 8.644212971528419942e-01
 9.138197631771977081e-01
 9.632181682163086789e-01
 2.464060197036693073e-02
 7.403973238882333163e-02
 1.234388369678089126e-01
 1.728379145382308857e-01
 2.222369638593889862e-01
 2.716359836134103478e-01
 3.210349723991512416e-01
 3.704339287255148383e-01
 4.198328510041216544e-01
 4.692317375412324854e-01
 5.186305865288742822e-01
 5.680293960350383253e-01
 6.174281639928698162e-01
 6.668268881886750821e-01
 7.162255662486640695e-01
 7.656241956241937041e-01
 8.150227735753944325e-01
 8.644212971528448808e-01
 9.138197631771997065e-01
 9.632181682163083458e-01
 2.464060197036691338e-02
 7.403973238882327612e-02
 1.234388369678089542e-01
 1.728379145382308024e-01
 2.222369638593890695e-01
 2.716359836134102923e-01
 3.210349723991508530e-01
 3.704339287255148938e-01
 4.198328510041219319e-01
 4.692317375412326519e-01
 5.186305865288732830e-01
 5.680293960350382143e-01
 6.174281639928719256e-01
 6.668268881886741939e-01
 7.162255662486642915e-01
 7.656241956241947033e-01
 8.150227735753932112e-01
 8.644212971528416611e-01
 9.138197631772000396e-01
 9.632181682163069025e-01
 2.464060197036693073e-02
 7.403973238882330388e-02
 1.234388369678089542e-01
 1.728379145382308579e-01
 2.222369638593889862e-01
 2.716359836134105143e-01
 3.210349723991509641e-01
 3.704339287255156155e-01
 4.198328510041213768e-01
 4.692317375412322633e-01
 5.186305865288743933e-01
 5.680293960350389915e-01
 6.174281639928704823e-01
 6.668268881886754151e-01
 7.162255662486650687e-01
 7.656241956241954805e-01
 8.150227735753907687e-01
 8.644212971528404399e-01
 9.138197631772030372e-01
 9.632181682163066805e-01
 2.464060197036691338e-02
 7.403973238882327612e-02
 1.234388369678089542e-01
 1.728379145382307192e-01
 2.222369638593892083e-01
 2.716359836134100703e-01
 3.210349723991502979e-01
 3.704339287255155599e-01
 4.198328510041217654e-01
 4.692317375412320413e-01
 5.186305865288731720e-01
 5.680293960350398796e-01
 6.174281639928690391e-01
 6.668268881886746380e-01
 7.162255662486659569e-01
 7.656241956241940372e-01
 8.150227735753919900e-01
 8.644212971528389966e-01
 9.138197631772007057e-01
 9.632181682163092340e-01
 2.464060197036690644e-02
 7.403973238882331775e-02
 1.234388369678089820e-01
 1.728379145382306359e-01
 2.222369638593891805e-01
 2.716359836134103478e-01
 3.210349723991507420e-01
 3.704339287255160040e-01
 4.198328510041218209e-01
 4.692317375412322078e-01
 5.186305865288732830e-01
 5.680293960350387694e-01
 6.174281639928700383e-01
 6.668268881886747490e-01
 7.162255662486670671e-01
 7.656241956241965907e-01
 8.150227735753919900e-01
 8.644212971528415501e-01
 9.138197631771973750e-01
 9.632181682163122316e-01
 2.464060197036692032e-02
 7.403973238882331775e-02
 1.234388369678089820e-01
 1.728379145382308024e-01
 2.222369638593890695e-01
 2.716359836134104588e-01
 3.210349723991504090e-01
 3.704339287255151714e-01
 4.198328510041224870e-01
 4.692317375412322078e-01
 5.186305865288741712e-01
 5.680293960350386584e-01
 6.174281639928711485e-01
 6.668268881886731947e-01
 7.162255662486636254e-01
 7.656241956241927049e-01
 8.150227735753947655e-01
 8.644212971528413281e-01
 9.138197631771967089e-01
 9.632181682163065695e-01
 2.464060197036691338e-02
 7.403973238882327612e-02
 1.234388369678089542e-01
 1.728379145382308024e-01
 2.222369638593891805e-01
 2.716359836134102923e-01
 3.210349723991512416e-01
 3.704339287255150048e-01
 4.198328510041215988e-01
 4.692317375412322078e-01
 5.186305865288732830e-01
 5.680293960350385474e-01
 6.174281639928694831e-01
 6.668268881886753041e-01
 7.162255662486650687e-01
 7.656241956241942592e-01
 8.150227735753887703e-01
 8.644212971528389966e-01
 9.138197631772018159e-01
 9.632181682163087899e-01
 2.464060197036693767e-02
 7.403973238882327612e-02
 1.234388369678089542e-01
 1.728379145382306081e-01
 2.222369638593892083e-01
 2.716359836134105143e-01
 3.210349723991507420e-01
 3.704339287255156155e-01
 4.198328510041212103e-01
 4.692317375412319302e-01
 5.186305865288736161e-01
 5.680293960350385474e-01
 6.174281639928710375e-01
 6.668268881886739718e-01
 7.162255662486665120e-01
 7.656241956241902624e-01
 8.150227735753925451e-01
 8.644212971528419942e-01
 9.138197631771997065e-01
 9.632181682163074576e-01
 </DataArray>
 <DataArray Name="pos.y" type="Float32" NumberOfComponents="1" format="ascii">
 2.685671592583973102e-02
 2.646922274695001631e-02
 2.608172977074847340e-02
 2.569423700640557570e-02
 2.530674446365358335e-02
 2.491925215283005007e-02
 2.453176008492567728e-02
 2.414426827163692127e-02
 2.375677672542315585e-02
 2.336928545957029854e-02
 2.298179448826034518e-02
 2.259430382664822864e-02
 2.220681349094662943e-02
 2.181932349851998035e-02
 2.143183386798873380e-02
 2.104434461934459599e-02
 2.065685577407975343e-02
 2.026936735532944636e-02
 1.988187938803318011e-02
 1.949439189911300260e-02
 8.057014777751919654e-02
 7.940766824085007669e-02
 7.824518931224540286e-02
 7.708271101921675139e-02
 7.592023339096071188e-02
 7.475775645849015716e-02
 7.359528025477707347e-02
 7.243280481491073952e-02
 7.127033017626943634e-02
 7.010785637871082276e-02
 6.894538346478107371e-02
 6.778291147994469634e-02
 6.662044047283997850e-02
 6.545797049555998615e-02
 6.429550160396607650e-02
 6.313303385803388512e-02
 6.197056732223896192e-02
 6.080810206598825929e-02
 5.964563816409931135e-02
 5.848317569733891413e-02
 1.342835796291987627e-01
 1.323461137347501371e-01
 1.304086488537422595e-01
 1.284711850320280069e-01
 1.265337223182678716e-01
 1.245962607641501879e-01
 1.226588004246285807e-01
 1.207213413581842698e-01
 1.187838836271156995e-01
 1.168464272978516072e-01
 1.149089724413021180e-01
 1.129715191332409385e-01
 1.110340674547330986e-01
 1.090966174925998566e-01
 1.071591693399437384e-01
 1.052217230967230077e-01
 1.032842788703987741e-01
 1.013468367766474088e-01
 9.940939694016558137e-02
 9.747195949556484995e-02
 1.879970114808780790e-01
 1.852845592286501697e-01
 1.825721083952392132e-01
 1.798596590448390542e-01
 1.771472112455750869e-01
 1.744347650698102603e-01
 1.717223205944799769e-01
 1.690098779014579389e-01
 1.662974370779619626e-01
 1.635849982169922390e-01
 1.608725614178224683e-01
 1.581601267865374305e-01
 1.554476944366267599e-01
 1.527352644896397271e-01
 1.500228370759210117e-01
 1.473104123354120609e-01
 1.445979904185580867e-01
 1.418855714873058227e-01
 1.391731557162321220e-01
 1.364607432937905152e-01
 2.417104433325575619e-01
 2.382230047225502578e-01
 2.347355679367363335e-01
 2.312481330576504901e-01
 2.277607001728821357e-01
 2.242732693754703743e-01
 2.207858407643314980e-01
 2.172984144447319965e-01
 2.138109905288081425e-01
 2.103235691361326765e-01
 2.068361503943435542e-01
 2.033487344398339780e-01
 1.998613214185197828e-01
 1.963739114866799307e-01
 1.928865048118990622e-01
 1.893991015741014472e-01
 1.859117019667168025e-01
 1.824243061979647640e-01
 1.789369144922992039e-01
 1.754495270920162497e-01
 2.954238751842372390e-01
 2.911614502164502349e-01
 2.868990274782329819e-01
 2.826366070704612876e-01
 2.783741891001894619e-01
 2.741117736811302108e-01
 2.698493609341821586e-01
 2.655869509880054991e-01
 2.613245439796543779e-01
 2.570621400552736135e-01
 2.527997393708641960e-01
 2.485373420931304700e-01
 2.442749484004124449e-01
 2.400125584837197179e-01
 2.357501725478766685e-01
 2.314877908127906392e-01
 2.272254135148765730e-01
 2.229630409086230114e-01
 2.187006732683649535e-01
 2.144383108902424839e-01
 3.491373070359165554e-01
 3.440998957103503231e-01
 3.390624870197302410e-01
 3.340250810832720574e-01
 3.289876780274965107e-01
 3.239502779867905469e-01
 3.189128811040340405e-01
 3.138754875312799175e-01
 3.088380974305012239e-01
 3.038007109744139678e-01
 2.987633283473846713e-01
 2.937259497464267399e-01
 2.886885753823061340e-01
 2.836512054807595606e-01
 2.786138402838544970e-01
 2.735764800514802753e-01
 2.685391250630363991e-01
 2.635017756192830074e-01
 2.584644320444299814e-01
 2.534270946884696896e-01
 4.028507388875957052e-01
 3.970383412042504667e-01
 3.912259465612265563e-01
 3.854135550960835488e-01
 3.796011669548040035e-01
 3.737887822924503833e-01
 3.679764012738853673e-01
 3.621640240745528927e-01
 3.563516508813470707e-01
 3.505392818935545995e-01
 3.447269173239054796e-01
 3.389145573997234262e-01
 3.331022023642000729e-01
 3.272898524777994034e-01
 3.214775080198311596e-01
 3.156651692901683015e-01
 3.098528366111959476e-01
 3.040405103299410605e-01
 2.982281908204966192e-01
 2.924158784866934813e-01
 4.565641707392755766e-01
 4.499767866981504993e-01
 4.433894061027244260e-01
 4.368020291088952622e-01
 4.302146558821109967e-01
 4.236272865981103308e-01
 4.170399214437373603e-01
 4.104525606178267561e-01
 4.038652043321937501e-01
 3.972778528126954534e-01
 3.906905063004260104e-01
 3.841031650530193353e-01
 3.775158293460922909e-01
 3.709284994748403008e-01
 3.643411757558085995e-01
 3.577538585288577710e-01
 3.511665481593538862e-01
 3.445792450405996687e-01
 3.379919495965645337e-01
 3.314046622849199930e-01
 5.102776025909543378e-01
 5.029152321920505875e-01
 4.955528656442206858e-01
 4.881905031217061985e-01
 4.808281448094181565e-01
 4.734657909037707224e-01
 4.661034416135884095e-01
 4.587410971611011745e-01
 4.513787577830391529e-01
 4.440164237318351415e-01
 4.366540952769470407e-01
 4.292917727063157440e-01
 4.219294563279862853e-01
 4.145671464718788113e-01
 4.072048434917874271e-01
 3.998425477675456308e-01
 3.924802597075143229e-01
 3.851179797512594427e-01
 3.777557083726295062e-01
 3.703934460831460052e-01
 </DataArray>
 <DataArray Name="pos.z" type="Float32" NumberOfComponents="1" format="ascii">
 0.000000000000000000e+00
 0.000000000000000000e+00
 0.000000000000000000e+00
 0.000000000000000000e+00
 0.000000000000000000e+00
 0.000000000000000000e+00
 0.000000000000000000e+00
 0.000000000000000000e+00
 0.000000000000000000e+00
 0.000000000000000000e+00
 0.000000000000000000e+00
 0.000000000000000000e+00
 0.000000000000000000e+00
 0.000000000000000000e+00
 0.000000000000000000e+00
 0.000000000000000000e+00
 0.000000000000000000e+00
 0.000000000000000000e+00
 0.000000000000000000e+00
 0.000000000000000000e+00
 0.000000000000000000e+00
 0.000000000000000000e+00
 0.000000000000000000e+00
 0.000000000000000000e+00
 0.000000000000000000e+00
 0.000000000000000000e+00
 0.000000000000000000e+00
 0.000000000000000000e+00
 0.000000000000000000e+00
 0.000000000000000000e+00
 0.000000000000000000e+00
 0.000000000000000000e+00
 0.000000000000000000e+00
 0.000000000000000000e+00
 0.000000000000000000e+00
 0.000000000000000000e+00
 0.000000000000000000e+00
 0.000000000000000000e+00
 0.000000000000000000e+00
 0.000000000000000000e+00
 0.000000000000000000e+00
 0.000000000000000000e+00
 0.000000000000000000e+00
 0.000000000000000000e+00
 0.000000000000000000e+00
 0.000000000000000000e+00
 0.000000000000000000e+00
 0.000000000000000000e+00
 0.000000000000000000e+00
 0.000000000000000000e+00
 0.000000000000000000e+00
 0.000000000000000000e+00
 0.000000000000000000e+00
 0.000000000000000000e+00
 0.000000000000000000e+00
 0.000000000000000000e+00
 0.000000000000000000e+00
 0.000000000000000000e+00
 0.000000000000000000e+00
 0.000000000000000000e+00
 0.000000000000000000e+00
 0.000000000000000000e+00
 0.000000000000000000e+00
 0.000000000000000000e+00
 0.000000000000000000e+00
 0.000000000000000000e+00
 0.000000000000000000e+00
 0.000000000000000000e+00
 0.000000000000000000e+00
 0.000000000000000000e+00
 0.000000000000000000e+00
 0.000000000000000000e+00
 0.000000000000000000e+00
 0.000000000000000000e+00
 0.000000000000000000e+00
 0.000000000000000000e+00
 0.000000000000000000e+00
 0.000000000000000000e+00
 0.000000000000000000e+00
 0.000000000000000000e+00
 0.000000000000000000e+00
 0.000000000000000000e+00
 0.000000000000000000e+00
 0.000000000000000000e+00
 0.000000000000000000e+00
 0.000000000000000000e+00
 0.000000000000000000e+00
 0.000000000000000000e+00
 0.000000000000000000e+00
 0.000000000000000000e+00
 0.000000000000000000e+00
 0.000000000000000000e+00
 0.000000000000000000e+00
 0.000000000000000000e+00
 0.000000000000000000e+00
 0.000000000000000000e+00
 0.000000000000000000e+00
 0.000000000000000000e+00
 0.000000000000000000e+00
 0.000000000000000000e+00
 0.000000000000000000e+00
 0.000000000000000000e+00
 0.000000000000000000e+00
 0.000000000000000000e+00
 0.000000000000000000e+00
 0.000000000000000000e+00
 0.000000000000000000e+00
 0.000000000000000000e+00
 0.000000000000000000e+00
 0.000000000000000000e+00
 0.000000000000000000e+00
 0.000000000000000000e+00
 0.000000000000000000e+00
 0.000000000000000000e+00
 0.000000000000000000e+00
 0.000000000000000000e+00
 0.000000000000000000e+00
 0.000000000000000000e+00
 0.000000000000000000e+00
 0.000000000000000000e+00
 0.000000000000000000e+00
 0.000000000000000000e+00
 0.000000000000000000e+00
 0.000000000000000000e+00
 0.000000000000000000e+00
 0.000000000000000000e+00
 0.000000000000000000e+00
 0.000000000000000000e+00
 0.000000000000000000e+00
 0.000000000000000000e+00
 0.000000000000000000e+00
 0.000000000000000000e+00
 0.000000000000000000e+00
 0.000000000000000000e+00
 0.000000000000000000e+00
 0.000000000000000000e+00
 0.000000000000000000e+00
 0.000000000000000000e+00
 0.000000000000000000e+00
 0.000000000000000000e+00
 0.000000000000000000e+00
 0.000000000000000000e+00
 0.000000000000000000e+00
 0.000000000000000000e+00
 0.000000000000000000e+00
 0.000000000000000000e+00
 0.000000000000000000e+00
 0.000000000000000000e+00
 0.000000000000000000e+00
 0.000000000000000000e+00
 0.000000000000000000e+00
 0.000000000000000000e+00
 0.000000000000000000e+00
 0.000000000000000000e+00
 0.000000000000000000e+00
 0.000000000000000000e+00
 0.000000000000000000e+00
 0.000000000000000000e+00
 0.000000000000000000e+00
 0.000000000000000000e+00
 0.000000000000000000e+00
 0.000000000000000000e+00
 0.000000000000000000e+00
 0.000000000000000000e+00
 0.000000000000000000e+00
 0.000000000000000000e+00
 0.000000000000000000e+00
 0.000000000000000000e+00
 0.000000000000000000e+00
 0.000000000000000000e+00
 0.000000000000000000e+00
 0.000000000000000000e+00
 0.000000000000000000e+00
 0.000000000000000000e+00
 0.000000000000000000e+00
 0.000000000000000000e+00
 0.000000000000000000e+00
 0.000000000000000000e+00
 0.000000000000000000e+00
 0.000000000000000000e+00
 0.000000000000000000e+00
 0.000000000000000000e+00
 0.000000000000000000e+00
 0.000000000000000000e+00
 0.000000000000000000e+00
 0.000000000000000000e+00
 0.000000000000000000e+00
 0.000000000000000000e+00
 0.000000000000000000e+00
 0.000000000000000000e+00
 0.000000000000000000e+00
 0.000000000000000000e+00
 0.000000000000000000e+00
 0.000000000000000000e+00
 0.000000000000000000e+00
 0.000000000000000000e+00
 0.000000000000000000e+00
 0.000000000000000000e+00
 0.000000000000000000e+00
 0.000000000000000000e+00
 </DataArray>
 <DataArray Name="volume" type="Float32" NumberOfComponents="1" format="ascii">
 7.126154289583334466e-05
 6.921999527083334792e-05
 6.720811852083345814e-05
 6.522591264583326874e-05
 6.327337764583340315e-05
 6.135051352083353610e-05
 5.945732027083331522e-05
 5.759379789583317420e-05
 5.575994639583335699e-05
 5.395576577083334180e-05
 5.218125602083325062e-05
 5.043641714583370009e-05
 4.872124914583311132e-05
 4.703575202083351721e-05
 4.537992577083324402e-05
 4.375377039583319976e-05
 4.215728589583342509e-05
 4.059047227083331693e-05
 3.905332952083342415e-05
 3.754585764583325886e-05
 2.137846286875000747e-04
 2.076599858125001115e-04
 2.016243555625002795e-04
 1.956777379374995758e-04
 1.898201329375001959e-04
 1.840515405625004050e-04
 1.783719608124999592e-04
 1.727813936874996717e-04
 1.672798391874999761e-04
 1.618672973125000322e-04
 1.565437680624996773e-04
 1.513092514375009444e-04
 1.461637474374994424e-04
 1.411072560625007278e-04
 1.361397773124997592e-04
 1.312613111874997619e-04
 1.264718576875008174e-04
 1.217714168124992664e-04
 1.171599885625005435e-04
 1.126375729374994445e-04
 3.563077144791670079e-04
 3.460999763541668345e-04
 3.360405926041665453e-04
 3.261295632291663030e-04
 3.163668882291674088e-04
 3.067525676041671519e-04
 2.972866013541666710e-04
 2.879689894791664538e-04
 2.787997319791669340e-04
 2.697788288541670275e-04
 2.609062801041666800e-04
 2.521820857291674637e-04
 2.436062457291658819e-04
 2.351787601041672744e-04
 2.268996288541662743e-04
 2.187688519791667306e-04
 2.107864294791681012e-04
 2.029523613541655072e-04
 1.952666476041675409e-04
 1.877292882291659352e-04
 4.988308002708330196e-04
 4.845399668958335574e-04
 4.704568296458339766e-04
 4.565813885208332471e-04
 4.429136435208336458e-04
 4.294535946458336549e-04
 4.162012418958334369e-04
 4.031565852708323414e-04
 3.903196247708328077e-04
 3.776903603958334807e-04
 3.652687921458331677e-04
 3.530549200208341998e-04
 3.410487440208323485e-04
 3.292502641458348238e-04
 3.176594803958321389e-04
 3.062763927708331301e-04
 2.951010012708341654e-04
 2.841333058958322088e-04
 2.733733066458343621e-04
 2.628210035208323309e-04
 6.413538860625002782e-04
 6.229799574375005514e-04
 6.048730666875005947e-04
 5.870332138124999743e-04
 5.694603988124999914e-04
 5.521546216875005374e-04
 5.351158824375008534e-04
 5.183441810624990964e-04
 5.018395175625001451e-04
 4.856018919375002592e-04
 4.696313041875005770e-04
 4.539277543125011527e-04
 4.384912423124988964e-04
 4.233217681875011806e-04
 4.084193319374986812e-04
 3.937839335625003428e-04
 3.794155730625011240e-04
 3.653142504374988562e-04
 3.514799656875019422e-04
 3.379127188124990519e-04
 7.838769718541676451e-04
 7.614199479791666780e-04
 7.392893037291659118e-04
 7.174850391041662136e-04
 6.960071541041680174e-04
 6.748556487291680703e-04
 6.540305229791665894e-04
 6.335317768541658514e-04
 6.133594103541666152e-04
 5.935134234791684471e-04
 5.739938162291674442e-04
 5.548005886041676177e-04
 5.359337406041657153e-04
 5.173932722291682421e-04
 4.991791834791651150e-04
 4.812914743541672302e-04
 4.637301448541676489e-04
 4.464951949791646363e-04
 4.295866247291685465e-04
 4.130044341041656645e-04
 9.264000576458319763e-04
 8.998599385208331299e-04
 8.737055407708355656e-04
 8.479368643958314772e-04
 8.225539093958320318e-04
 7.975566757708348444e-04
 7.729451635208349275e-04
 7.487193726458328232e-04
 7.248793031458353620e-04
 7.014249550208337619e-04
 6.783563282708325766e-04
 6.556734228958341912e-04
 6.333762388958311248e-04
 6.114647762708356289e-04
 5.899390350208324162e-04
 5.687990151458327624e-04
 5.480447166458351496e-04
 5.276761395208339400e-04
 5.076932837708346630e-04
 4.880961493958320603e-04
 1.068923143437500211e-03
 1.038299929062500666e-03
 1.008121777812500883e-03
 9.783886896875019449e-04
 9.491006646875027684e-04
 9.202577028124999921e-04
 8.918598040624994708e-04
 8.639069684374962171e-04
 8.363991959374969531e-04
 8.093364865624988599e-04
 7.827188403124996606e-04
 7.565462571875028247e-04
 7.308187371874997869e-04
 7.055362803125043167e-04
 6.806988865624968984e-04