<VTKFile type="UnstructuredGrid" byte_order="BigEndian">
<UnstructuredGrid><Piece NumberOfPoints="231" NumberOfCells="200">
<Points>
 <DataArray type="Float32" NumberOfComponents="3" format="ascii">
 2.170000076293945312e+00 0.000000000000000000e+00 0.000000000000000000e+00
 2.186500072479248047e+00 0.000000000000000000e+00 0.000000000000000000e+00
 2.203000068664550781e+00 0.000000000000000000e+00 0.000000000000000000e+00
 2.219500064849853516e+00 0.000000000000000000e+00 0.000000000000000000e+00
 2.236000061035156250e+00 0.000000000000000000e+00 0.000000000000000000e+00
 2.252500057220458984e+00 0.000000000000000000e+00 0.000000000000000000e+00
 2.269000053405761719e+00 0.000000000000000000e+00 0.000000000000000000e+00
 2.285500049591064453e+00 0.000000000000000000e+00 0.000000000000000000e+00
 2.302000045776367188e+00 0.000000000000000000e+00 0.000000000000000000e+00
 2.318500041961669922e+00 0.000000000000000000e+00 0.000000000000000000e+00
 2.335000038146972656e+00 0.000000000000000000e+00 0.000000000000000000e+00
 2.351500034332275391e+00 0.000000000000000000e+00 0.000000000000000000e+00
 2.368000030517578125e+00 0.000000000000000000e+00 0.000000000000000000e+00
 2.384500026702880859e+00 0.000000000000000000e+00 0.000000000000000000e+00
 2.401000022888183594e+00 0.000000000000000000e+00 0.000000000000000000e+00
 2.417500019073486328e+00 0.000000000000000000e+00 0.000000000000000000e+00
 2.434000015258789062e+00 0.000000000000000000e+00 0.000000000000000000e+00
 2.450500011444091797e+00 0.000000000000000000e+00 0.000000000000000000e+00
 2.467000007629394531e+00 0.000000000000000000e+00 0.000000000000000000e+00
 2.483500003814697266e+00 0.000000000000000000e+00 0.000000000000000000e+00
 2.500000000000000000e+00 0.000000000000000000e+00 0.000000000000000000e+00
 2.170000076293945312e+00 5.700000096112489700e-03 0.000000000000000000e+00
 2.186500072479248047e+00 5.700000096112489700e-03 0.000000000000000000e+00
 2.203000068664550781e+00 5.700000096112489700e-03 0.000000000000000000e+00
 2.219500064849853516e+00 5.700000096112489700e-03 0.000000000000000000e+00
 2.236000061035156250e+00 5.700000096112489700e-03 0.000000000000000000e+00
 2.252500057220458984e+00 5.700000096112489700e-03 0.000000000000000000e+00
 2.269000053405761719e+00 5.700000096112489700e-03 0.000000000000000000e+00
 2.285500049591064453e+00 5.700000096112489700e-03 0.000000000000000000e+00
 2.302000045776367188e+00 5.700000096112489700e-03 0.000000000000000000e+00
 2.318500041961669922e+00 5.700000096112489700e-03 0.000000000000000000e+00
 2.335000038146972656e+00 5.700000096112489700e-03 0.000000000000000000e+00
 2.351500034332275391e+00 5.700000096112489700e-03 0.000000000000000000e+00
 2.368000030517578125e+00 5.700000096112489700e-03 0.000000000000000000e+00
 2.384500026702880859e+00 5.700000096112489700e-03 0.000000000000000000e+00
 2.401000022888183594e+00 5.700000096112489700e-03 0.000000000000000000e+00
 2.417500019073486328e+00 5.700000096112489700e-03 0.000000000000000000e+00
 2.434000015258789062e+00 5.700000096112489700e-03 0.000000000000000000e+00
 2.450500011444091797e+00 5.700000096112489700e-03 0.000000000000000000e+00
 2.467000007629394531e+00 5.700000096112489700e-03 0.000000000000000000e+00
 2.483500003814697266e+00 5.700000096112489700e-03 0.000000000000000000e+00
 2.500000000000000000e+00 5.700000096112489700e-03 0.000000000000000000e+00
 2.170000076293945312e+00 1.140000019222497940e-02 0.000000000000000000e+00
 2.186500072479248047e+00 1.140000019222497940e-02 0.000000000000000000e+00
 2.203000068664550781e+00 1.140000019222497940e-02 0.000000000000000000e+00
 2.219500064849853516e+00 1.140000019222497940e-02 0.000000000000000000e+00
 2.236000061035156250e+00 1.140000019222497940e-02 0.000000000000000000e+00
 2.252500057220458984e+00 1.140000019222497940e-02 0.000000000000000000e+00
 2.269000053405761719e+00 1.140000019222497940e-02 0.000000000000000000e+00
 2.285500049591064453e+00 1.140000019222497940e-02 0.000000000000000000e+00
 2.302000045776367188e+00 1.140000019222497940e-02 0.000000000000000000e+00
 2.318500041961669922e+00 1.140000019222497940e-02 0.000000000000000000e+00
 2.335000038146972656e+00 1.140000019222497940e-02 0.000000000000000000e+00
 2.351500034332275391e+00 1.140000019222497940e-02 0.000000000000000000e+00
 2.368000030517578125e+00 1.140000019222497940e-02 0.000000000000000000e+00
 2.384500026702880859e+00 1.140000019222497940e-02 0.000000000000000000e+00
 2.401000022888183594e+00 1.140000019222497940e-02 0.000000000000000000e+00
 2.417500019073486328e+00 1.140000019222497940e-02 0.000000000000000000e+00
 2.434000015258789062e+00 1.140000019222497940e-02 0.000000000000000000e+00
 2.450500011444091797e+00 1.140000019222497940e-02 0.000000000000000000e+00
 2.467000007629394531e+00 1.140000019222497940e-02 0.000000000000000000e+00
 2.483500003814697266e+00 1.140000019222497940e-02 0.000000000000000000e+00
 2.500000000000000000e+00 1.140000019222497940e-02 0.000000000000000000e+00
 2.170000076293945312e+00 1.710000075399875641e-02 0.000000000000000000e+00
 2.186500072479248047e+00 1.710000075399875641e-02 0.000000000000000000e+00
 2.203000068664550781e+00 1.710000075399875641e-02 0.000000000000000000e+00
 2.219500064849853516e+00 1.710000075399875641e-02 0.000000000000000000e+00
 2.236000061035156250e+00 1.710000075399875641e-02 0.000000000000000000e+00
 2.252500057220458984e+00 1.710000075399875641e-02 0.000000000000000000e+00
 2.269000053405761719e+00 1.710000075399875641e-02 0.000000000000000000e+00
 2.285500049591064453e+00 1.710000075399875641e-02 0.000000000000000000e+00
 2.302000045776367188e+00 1.710000075399875641e-02 0.000000000000000000e+00
 2.318500041961669922e+00 1.710000075399875641e-02 0.000000000000000000e+00
 2.335000038146972656e+00 1.710000075399875641e-02 0.000000000000000000e+00
 2.351500034332275391e+00 1.710000075399875641e-02 0.000000000000000000e+00
 2.368000030517578125e+00 1.710000075399875641e-02 0.000000000000000000e+00
 2.384500026702880859e+00 1.710000075399875641e-02 0.000000000000000000e+00
 2.401000022888183594e+00 1.710000075399875641e-02 0.000000000000000000e+00
 2.417500019073486328e+00 1.710000075399875641e-02 0.000000000000000000e+00
 2.434000015258789062e+00 1.710000075399875641e-02 0.000000000000000000e+00
 2.450500011444091797e+00 1.710000075399875641e-02 0.000000000000000000e+00
 2.467000007629394531e+00 1.710000075399875641e-02 0.000000000000000000e+00
 2.483500003814697266e+00 1.710000075399875641e-02 0.000000000000000000e+00
 2.500000000000000000e+00 1.710000075399875641e-02 0.000000000000000000e+00
 2.170000076293945312e+00 2.280000038444995880e-02 0.000000000000000000e+00
 2.186500072479248047e+00 2.280000038444995880e-02 0.000000000000000000e+00
 2.203000068664550781e+00 2.280000038444995880e-02 0.000000000000000000e+00
 2.219500064849853516e+00 2.280000038444995880e-02 0.000000000000000000e+00
 2.236000061035156250e+00 2.280000038444995880e-02 0.000000000000000000e+00
 2.252500057220458984e+00 2.280000038444995880e-02 0.000000000000000000e+00
 2.269000053405761719e+00 2.280000038444995880e-02 0.000000000000000000e+00
 2.285500049591064453e+00 2.280000038444995880e-02 0.000000000000000000e+00
 2.302000045776367188e+00 2.280000038444995880e-02 0.000000000000000000e+00
 2.318500041961669922e+00 2.280000038444995880e-02 0.000000000000000000e+00
 2.335000038146972656e+00 2.280000038444995880e-02 0.000000000000000000e+00
 2.351500034332275391e+00 2.280000038444995880e-02 0.000000000000000000e+00
 2.368000030517578125e+00 2.280000038444995880e-02 0.000000000000000000e+00
 2.384500026702880859e+00 2.280000038444995880e-02 0.000000000000000000e+00
 2.401000022888183594e+00 2.280000038444995880e-02 0.000000000000000000e+00
 2.417500019073486328e+00 2.280000038444995880e-02 0.000000000000000000e+00
 2.434000015258789062e+00 2.280000038444995880e-02 0.000000000000000000e+00
 2.450500011444091797e+00 2.280000038444995880e-02 0.000000000000000000e+00
 2.467000007629394531e+00 2.280000038444995880e-02 0.000000000000000000e+00
 2.483500003814697266e+00 2.280000038444995880e-02 0.000000000000000000e+00
 2.500000000000000000e+00 2.280000038444995880e-02 0.000000000000000000e+00
 2.170000076293945312e+00 2.850000001490116119e-02 0.000000000000000000e+00
 2.186500072479248047e+00 2.850000001490116119e-02 0.000000000000000000e+00
 2.203000068664550781e+00 2.850000001490116119e-02 0.000000000000000000e+00
 2.219500064849853516e+00 2.850000001490116119e-02 0.000000000000000000e+00
 2.236000061035156250e+00 2.850000001490116119e-02 0.000000000000000000e+00
 2.252500057220458984e+00 2.850000001490116119e-02 0.000000000000000000e+00
 2.269000053405761719e+00 2.850000001490116119e-02 0.000000000000000000e+00
 2.285500049591064453e+00 2.850000001490116119e-02 0.000000000000000000e+00
 2.302000045776367188e+00 2.850000001490116119e-02 0.000000000000000000e+00
 2.318500041961669922e+00 2.850000001490116119e-02 0.000000000000000000e+00
 2.335000038146972656e+00 2.850000001490116119e-02 0.000000000000000000e+00
 2.351500034332275391e+00 2.850000001490116119e-02 0.000000000000000000e+00
 2.368000030517578125e+00 2.850000001490116119e-02 0.000000000000000000e+00
 2.384500026702880859e+00 2.850000001490116119e-02 0.000000000000000000e+00
 2.401000022888183594e+00 2.850000001490116119e-02 0.000000000000000000e+00
 2.417500019073486328e+00 2.850000001490116119e-02 0.000000000000000000e+00
 2.434000015258789062e+00 2.850000001490116119e-02 0.000000000000000000e+00
 2.450500011444091797e+00 2.850000001490116119e-02 0.000000000000000000e+00
 2.467000007629394531e+00 2.850000001490116119e-02 0.000000000000000000e+00
 2.483500003814697266e+00 2.850000001490116119e-02 0.000000000000000000e+00
 2.500000000000000000e+00 2.850000001490116119e-02 0.000000000000000000e+00
 2.170000076293945312e+00 3.420000150799751282e-02 0.000000000000000000e+00
 2.186500072479248047e+00 3.420000150799751282e-02 0.000000000000000000e+00
[...]
<CellData>
 <DataArray Name="pos.x" type="Float32" NumberOfComponents="1" format="ascii">
 2.178249999999998465e+00
 2.194750000000014190e+00
 2.211249999999952642e+00
 2.227749999999925290e+00
 2.244250000000086676e+00
 2.260749999999935866e+00
 2.277249999999984009e+00
 2.293749999999973088e+00
 2.310250000000056314e+00
 2.326750000000000984e+00
 2.343249999999965638e+00
 2.359750000000016001e+00
 2.376250000000048157e+00
 2.392750000000007926e+00
 2.409249999999957481e+00
 2.425750000000006956e+00
 2.442249999999914323e+00
 2.458750000000038849e+00
 2.475250000000003503e+00
 2.491749999999977927e+00
 2.178249999999974040e+00
 2.194750000000069257e+00
 2.211249999999936211e+00
 2.227749999999953712e+00
 2.244250000000099554e+00
 2.260750000000019799e+00
 2.277249999999984009e+00
 2.293750000000082334e+00
 2.310249999999977266e+00
 2.326749999999994323e+00
 2.343250000000009159e+00
 2.359749999999964931e+00
 2.376250000000056151e+00
 2.392749999999983057e+00
 2.409250000000063174e+00
 2.425749999999915030e+00
 2.442250000000007137e+00
 2.458750000000067271e+00
 2.475249999999958206e+00
 2.491750000000013898e+00
 2.178249999999933628e+00
 2.194750000000017742e+00
 2.211250000000005933e+00
 2.227749999999978137e+00
 2.244249999999997414e+00
 2.260750000000022464e+00
 2.277249999999999996e+00
 2.293749999999906031e+00
 2.310250000000031445e+00
 2.326750000000000984e+00
 2.343250000000052236e+00
 2.359749999999950720e+00
 2.376250000000026397e+00
 2.392749999999933763e+00
 2.409250000000006775e+00
 2.425749999999966100e+00
 2.442250000000004473e+00
 2.458750000000039737e+00
 2.475250000000031481e+00
 2.491749999999999687e+00
 2.178250000000008235e+00
 2.194750000000015522e+00
 2.211250000000000604e+00
 2.227749999999890207e+00
 2.244250000000086676e+00
 2.260749999999960291e+00
 2.277250000000008434e+00
 2.293749999999997957e+00
 2.310250000000007020e+00
 2.326750000000000984e+00
 2.343249999999965638e+00
 2.359749999999972037e+00
 2.376249999999980211e+00
 2.392750000000032351e+00
 2.409250000000002334e+00
 2.425750000000006956e+00
 2.442249999999955179e+00
 2.458750000000026414e+00
 2.475249999999979078e+00
 2.491749999999999687e+00
 2.178249999999958497e+00
 2.194749999999990653e+00
 2.211249999999976623e+00
 2.227749999999940833e+00
 2.244250000000006295e+00
 2.260749999999986493e+00
 2.277250000000023089e+00
 2.293749999999997957e+00
 2.310250000000007020e+00
 2.326750000000000984e+00
 2.343249999999990063e+00
 2.359750000000024439e+00
 2.376249999999946461e+00
 2.392750000000076316e+00
 2.409249999999965031e+00
 2.425749999999998519e+00
 2.442249999999971166e+00
 2.458749999999976676e+00
 2.475249999999995065e+00
 2.491750000000042320e+00
 2.178250000000013564e+00
 2.194750000000024404e+00
 2.211249999999927773e+00
 2.227750000000067399e+00
 2.244249999999986311e+00
 2.260749999999960291e+00
 2.277250000000018204e+00
 2.293749999999988187e+00
 2.310250000000030113e+00
 2.326750000000028518e+00
 2.343249999999971855e+00
 2.359749999999983139e+00
 2.376250000000039719e+00
 2.392750000000024357e+00
 2.409249999999965919e+00
 2.425750000000042483e+00
 2.442249999999918320e+00
 2.458750000000060165e+00
 2.475249999999920458e+00
 2.491750000000066745e+00
 2.178250000000034881e+00
 2.194750000000036394e+00
 2.211249999999965521e+00
 2.227750000000034980e+00
 2.244249999999996081e+00
 2.260749999999977167e+00
 2.277250000000032859e+00
 2.293749999999990852e+00
 2.310249999999971049e+00
 2.326750000000044061e+00
 2.343249999999990063e+00
 2.359749999999991132e+00
 2.376250000000023732e+00
 2.392749999999987498e+00
 2.409250000000002334e+00
 2.425750000000006956e+00
 2.442249999999963617e+00
 2.458750000000049951e+00
 2.475250000000003503e+00
 2.491749999999968157e+00
 2.178250000000034881e+00
 2.194749999999931589e+00
 2.211250000000009486e+00
 2.227750000000030095e+00
 2.244249999999996081e+00
 2.260749999999992266e+00
 2.277250000000018204e+00
 2.293749999999990852e+00
 2.310250000000003467e+00
 2.326750000000011198e+00
 2.343249999999990063e+00
 2.359749999999985359e+00
 2.376250000000011742e+00
 2.392750000000005262e+00
 2.409249999999957481e+00
 2.425750000000050921e+00
 2.442249999999963617e+00
 2.458749999999961133e+00
 2.475250000000043471e+00
 2.491750000000066745e+00
 2.178249999999982922e+00
 2.194749999999999979e+00
 2.211249999999942872e+00
 2.227749999999980801e+00
 2.244250000000040934e+00
 2.260750000000011806e+00
 2.277249999999971131e+00
 2.293750000000033484e+00
 2.310250000000005688e+00
 2.326749999999991214e+00
 2.343250000000014932e+00
 2.359750000000008452e+00
 2.376249999999987317e+00
 2.392750000000051891e+00
 2.409249999999948599e+00
 2.425749999999970541e+00
 2.442249999999999588e+00
 2.458749999999972680e+00
 2.475250000000024375e+00
 2.491749999999937959e+00
 2.178250000000048647e+00
 2.194749999999987988e+00
 2.211249999999981952e+00
 2.227749999999966590e+00
 2.244250000000040934e+00
 2.260749999999986937e+00
 2.277250000000017316e+00
 2.293749999999944222e+00
 2.310250000000031445e+00
 2.326750000000011198e+00
 2.343249999999979849e+00
 2.359749999999991132e+00
 2.376250000000023732e+00
 2.392750000000016808e+00
 2.409249999999965919e+00
 2.425750000000074014e+00
 2.442249999999963617e+00
 2.458750000000026859e+00
 2.475249999999994621e+00
 2.491749999999999687e+00
 </DataArray>
 <DataArray Name="pos.y" type="Float32" NumberOfComponents="1" format="ascii">
 2.850000000000005741e-03
 2.850000000000053012e-03
 2.849999999999955000e-03
 2.849999999999902958e-03
 2.850000000000081635e-03
 2.849999999999977551e-03
 2.849999999999955434e-03
 2.850000000000005741e-03
 2.850000000000053012e-03
 2.850000000000005307e-03
 2.849999999999955434e-03
 2.850000000000029593e-03
 2.850000000000031328e-03
 2.850000000000005741e-03
 2.849999999999977985e-03
 2.850000000000007475e-03
 2.849999999999976250e-03
 2.850000000000031328e-03
 2.850000000000005307e-03
 2.849999999999976250e-03
 8.549999999999889286e-03
 8.550000000000250108e-03
 8.549999999999757447e-03
 8.549999999999882347e-03
 8.550000000000231026e-03
 8.550000000000192862e-03
 8.549999999999785202e-03
 8.550000000000208475e-03
 8.549999999999944797e-03
 8.549999999999993369e-03
 8.549999999999946532e-03
 8.549999999999922246e-03
 8.550000000000182454e-03
 8.549999999999889286e-03
 8.550000000000095718e-03
 8.549999999999825101e-03
 8.550000000000002043e-03
 8.550000000000243169e-03
 8.549999999999858061e-03
 8.550000000000028064e-03
 1.424999999999959112e-02
 1.425000000000012021e-02
 1.425000000000007684e-02
 1.424999999999975939e-02
 1.425000000000003174e-02
 1.425000000000016011e-02
 1.424999999999998664e-02
 1.424999999999960326e-02
 1.425000000000020521e-02
 1.425000000000004562e-02
 1.425000000000019133e-02
 1.424999999999974724e-02
 1.425000000000018266e-02
 1.424999999999986694e-02
 1.425000000000008551e-02
 1.424999999999993806e-02
 1.424999999999983571e-02
 1.425000000000013062e-02
 1.425000000000024164e-02
 1.424999999999993286e-02
 1.994999999999992960e-02
 1.995000000000045695e-02
 1.995000000000003368e-02
 1.994999999999902060e-02
 1.995000000000047430e-02
 1.994999999999981163e-02
 1.995000000000000939e-02
 1.995000000000002327e-02
 1.995000000000026960e-02
 1.994999999999974918e-02
 1.994999999999976653e-02
 1.994999999999973184e-02
 1.994999999999984633e-02
 1.995000000000002327e-02
 1.995000000000018980e-02
 1.994999999999984980e-02
 1.995000000000003368e-02
 1.995000000000015858e-02
 1.995000000000004756e-02
 1.994999999999979776e-02
 2.564999999999960367e-02
 2.565000000000021083e-02
 2.564999999999985347e-02
 2.564999999999948918e-02
 2.565000000000010327e-02
 2.565000000000005817e-02
 2.565000000000002001e-02
 2.565000000000005123e-02
 2.565000000000037042e-02
 2.564999999999973898e-02
 2.565000000000006511e-02
 2.565000000000005817e-02
 2.564999999999955163e-02
 2.565000000000052308e-02
 2.564999999999972857e-02
 2.564999999999991592e-02
 2.564999999999997143e-02
 2.564999999999970429e-02
 2.565000000000006858e-02
 2.565000000000041205e-02
 3.135000000000043308e-02
 3.135000000000041920e-02
 3.134999999999946857e-02
 3.135000000000058573e-02
 3.134999999999985715e-02
 3.134999999999982245e-02
 3.135000000000019715e-02
 3.134999999999961429e-02
 3.135000000000057879e-02
 3.135000000000007225e-02
 3.134999999999955184e-02
 3.134999999999997511e-02
 3.135000000000012776e-02
 3.135000000000025960e-02
 3.135000000000001674e-02
 3.135000000000026654e-02
 3.134999999999951020e-02
 3.135000000000016940e-02
 3.134999999999964898e-02
 3.135000000000055104e-02
 3.705000000000035348e-02
 3.705000000000070043e-02
 3.704999999999955551e-02
 3.705000000000029797e-02
 3.704999999999969429e-02
 3.705000000000039512e-02
 3.705000000000007593e-02
 3.704999999999974980e-02
 3.705000000000015226e-02
 3.705000000000027716e-02
 3.705000000000004817e-02
 3.704999999999969429e-02
 3.705000000000031185e-02
 3.704999999999931959e-02
 3.705000000000037430e-02
 3.704999999999974980e-02
 3.704999999999999266e-02
 3.705000000000002042e-02
 3.705000000000060328e-02
 3.704999999999954163e-02
 4.275000000000043349e-02
 4.274999999999925387e-02
 4.275000000000030165e-02
 4.275000000000018369e-02
 4.274999999999962164e-02
 4.275000000000027389e-02
 4.275000000000005185e-02
 4.274999999999967715e-02
 4.275000000000011430e-02
 4.275000000000023920e-02
 4.275000000000004491e-02
 4.274999999999985756e-02
 4.274999999999955919e-02
 4.274999999999997552e-02
 4.274999999999962164e-02
 4.275000000000044736e-02
 4.274999999999998246e-02
 4.274999999999948980e-02
 4.274999999999989225e-02
 4.275000000000062084e-02
 4.844999999999922285e-02
 4.845000000000051349e-02
 4.844999999999973633e-02
 4.844999999999966001e-02
 4.845000000000031920e-02
 4.845000000000058982e-02
 4.844999999999917428e-02
 4.845000000000075635e-02
 4.844999999999990981e-02
 4.844999999999990981e-02
 4.845000000000016654e-02
 4.845000000000002777e-02
 4.844999999999949347e-02
 4.845000000000110330e-02
 4.844999999999936857e-02
 4.844999999999903550e-02
 4.845000000000077023e-02
 4.844999999999968082e-02
 4.845000000000042328e-02
 4.844999999999940327e-02
 5.415000000000087799e-02
 5.414999999999995511e-02
 5.414999999999957347e-02
 5.414999999999921959e-02
 5.415000000000005920e-02
 5.415000000000060737e-02
 5.414999999999954572e-02
 5.414999999999957347e-02
 5.415000000000068370e-02
 5.415000000000043390e-02
 5.414999999999970531e-02
 5.414999999999947633e-02
 5.415000000000042002e-02
 5.415000000000036451e-02
 5.414999999999916408e-02
 5.415000000000109309e-02
 5.414999999999924041e-02
 5.415000000000073921e-02
 5.415000000000002450e-02
 5.414999999999957347e-02
 </DataArray>
 <DataArray Name="pos.z" type="Float32" NumberOfComponents="1" format="ascii">
 0.000000000000000000e+00
 0.000000000000000000e+00
 0.000000000000000000e+00
 0.000000000000000000e+00
 0.000000000000000000e+00
 0.000000000000000000e+00
 0.000000000000000000e+00
 0.000000000000000000e+00
 0.000000000000000000e+00
 0.000000000000000000e+00
 0.000000000000000000e+00
 0.000000000000000000e+00
 0.000000000000000000e+00
 0.000000000000000000e+00
 0.000000000000000000e+00
 0.000000000000000000e+00
 0.000000000000000000e+00
 0.000000000000000000e+00
 0.000000000000000000e+00
 0.000000000000000000e+00
 0.000000000000000000e+00
 0.000000000000000000e+00
 0.000000000000000000e+00
 0.000000000000000000e+00
 0.000000000000000000e+00
 0.000000000000000000e+00
 0.000000000000000000e+00
 0.000000000000000000e+00
 0.000000000000000000e+00
 0.000000000000000000e+00
 0.000000000000000000e+00
 0.000000000000000000e+00
 0.000000000000000000e+00
 0.000000000000000000e+00
 0.000000000000000000e+00
 0.000000000000000000e+00
 0.000000000000000000e+00
 0.000000000000000000e+00
 0.000000000000000000e+00
 0.000000000000000000e+00
 0.000000000000000000e+00
 0.000000000000000000e+00
 0.000000000000000000e+00
 0.000000000000000000e+00
 0.000000000000000000e+00
 0.000000000000000000e+00
 0.000000000000000000e+00
 0.000000000000000000e+00
 0.000000000000000000e+00
 0.000000000000000000e+00
 0.000000000000000000e+00
 0.000000000000000000e+00
 0.000000000000000000e+00
 0.000000000000000000e+00
 0.000000000000000000e+00
 0.000000000000000000e+00
 0.000000000000000000e+00
 0.000000000000000000e+00
 0.000000000000000000e+00
 0.000000000000000000e+00
 0.000000000000000000e+00
 0.000000000000000000e+00
 0.000000000000000000e+00
 0.000000000000000000e+00
 0.000000000000000000e+00
 0.000000000000000000e+00
 0.000000000000000000e+00
 0.000000000000000000e+00
 0.000000000000000000e+00
 0.000000000000000000e+00
 0.000000000000000000e+00
 0.000000000000000000e+00
 0.000000000000000000e+00
 0.000000000000000000e+00
 0.000000000000000000e+00
 0.000000000000000000e+00
 0.000000000000000000e+00
 0.000000000000000000e+00
 0.000000000000000000e+00
 0.000000000000000000e+00
 0.000000000000000000e+00
 0.000000000000000000e+00
 0.000000000000000000e+00
 0.000000000000000000e+00
 0.000000000000000000e+00
 0.000000000000000000e+00
 0.000000000000000000e+00
 0.000000000000000000e+00
 0.000000000000000000e+00
 0.000000000000000000e+00
 0.000000000000000000e+00
 0.000000000000000000e+00
 0.000000000000000000e+00
 0.000000000000000000e+00
 0.000000000000000000e+00
 0.000000000000000000e+00
 0.000000000000000000e+00
 0.000000000000000000e+00
 0.000000000000000000e+00
 0.000000000000000000e+00
 0.000000000000000000e+00
 0.000000000000000000e+00
 0.000000000000000000e+00
 0.000000000000000000e+00
 0.000000000000000000e+00
 0.000000000000000000e+00
 0.000000000000000000e+00
 0.000000000000000000e+00
 0.000000000000000000e+00
 0.000000000000000000e+00
 0.000000000000000000e+00
 0.000000000000000000e+00
 0.000000000000000000e+00
 0.000000000000000000e+00
 0.000000000000000000e+00
 0.000000000000000000e+00
 0.000000000000000000e+00
 0.000000000000000000e+00
 0.000000000000000000e+00
 0.000000000000000000e+00
 0.000000000000000000e+00
 0.000000000000000000e+00
 0.000000000000000000e+00
 0.000000000000000000e+00
 0.000000000000000000e+00
 0.000000000000000000e+00
 0.000000000000000000e+00
 0.000000000000000000e+00
 0.000000000000000000e+00
 0.000000000000000000e+00
 0.000000000000000000e+00
 0.000000000000000000e+00
 0.000000000000000000e+00
 0.000000000000000000e+00
 0.000000000000000000e+00
 0.000000000000000000e+00
 0.000000000000000000e+00
 0.000000000000000000e+00
 0.000000000000000000e+00
 0.000000000000000000e+00
 0.000000000000000000e+00
 0.000000000000000000e+00
 0.000000000000000000e+00
 0.000000000000000000e+00
 0.000000000000000000e+00
 0.000000000000000000e+00
 0.000000000000000000e+00
 0.000000000000000000e+00
 0.000000000000000000e+00
 0.000000000000000000e+00
 0.000000000000000000e+00
 0.000000000000000000e+00
 0.000000000000000000e+00
 0.000000000000000000e+00
 0.000000000000000000e+00
 0.000000000000000000e+00
 0.000000000000000000e+00
 0.000000000000000000e+00
 0.000000000000000000e+00
 0.000000000000000000e+00
 0.000000000000000000e+00
 0.000000000000000000e+00
 0.000000000000000000e+00
 0.000000000000000000e+00
 0.000000000000000000e+00
 0.000000000000000000e+00
 0.000000000000000000e+00
 0.000000000000000000e+00
 0.000000000000000000e+00
 0.000000000000000000e+00
 0.000000000000000000e+00
 0.000000000000000000e+00
 0.000000000000000000e+00
 0.000000000000000000e+00
 0.000000000000000000e+00
 0.000000000000000000e+00
 0.000000000000000000e+00
 0.000000000000000000e+00
 0.000000000000000000e+00
 0.000000000000000000e+00
 0.000000000000000000e+00
 0.000000000000000000e+00
 0.000000000000000000e+00
 0.000000000000000000e+00
 0.000000000000000000e+00
 0.000000000000000000e+00
 0.000000000000000000e+00
 0.000000000000000000e+00
 0.000000000000000000e+00
 0.000000000000000000e+00
 0.000000000000000000e+00
 0.000000000000000000e+00
 0.000000000000000000e+00
 0.000000000000000000e+00
 0.000000000000000000e+00
 0.000000000000000000e+00
 0.000000000000000000e+00
 0.000000000000000000e+00
 0.000000000000000000e+00
 0.000000000000000000e+00
 </DataArray>
 <DataArray Name="volume" type="Float32" NumberOfComponents="1" format="ascii">
 2.680424999999957379e-07
 2.680425000000150079e-07
 2.680424999999908675e-07
 2.680424999999909204e-07
 2.680425000000077552e-07
 2.680425000000029377e-07
 2.680424999999909204e-07
 2.680424999999957379e-07
 2.680425000000150079e-07
 2.680424999999957379e-07
 2.680424999999909204e-07
 2.680425000000078081e-07
 2.680425000000030436e-07
 2.680424999999957379e-07
 2.680425000000029906e-07
 2.680424999999908675e-07
 2.680425000000077552e-07
 2.680424999999980672e-07
 2.680424999999957379e-07
 2.680425000000077022e-07
 8.041274999999751964e-07
 8.041275000000520647e-07
 8.041274999999772081e-07
 8.041274999999778434e-07
 8.041275000000185010e-07
 8.041275000000204068e-07
 8.041274999999653497e-07
 8.041274999999753023e-07
 8.041275000000522764e-07
 8.041274999999871608e-07
 8.041274999999658791e-07
 8.041275000000429591e-07
 8.041274999999972193e-07
 8.041274999999751964e-07
 8.041275000000209362e-07
 8.041275000000017721e-07
 8.041274999999825021e-07
 8.041275000000231597e-07
 8.041274999999870549e-07
 8.041275000000065366e-07
 1.340212499999961802e-06
 1.340212500000031682e-06
 1.340212500000037611e-06
 1.340212499999958837e-06
 1.340212500000016012e-06
 1.340212500000033588e-06
 1.340212499999963708e-06
 1.340212499999963496e-06
 1.340212500000069163e-06
 1.340212499999980225e-06
 1.340212499999944226e-06
 1.340212500000068951e-06
 1.340212499999999071e-06
 1.340212499999963496e-06
 1.340212500000033376e-06
 1.340212499999994624e-06
 1.340212499999985095e-06
 1.340212500000050952e-06
 1.340212499999960955e-06
 1.340212500000018553e-06
 1.876297499999969689e-06
 1.876297500000020723e-06
 1.876297500000039569e-06
 1.876297499999921408e-06
 1.876297500000044863e-06
 1.876297500000017758e-06
 1.876297499999967148e-06
 1.876297499999968207e-06
 1.876297500000095261e-06
 1.876297499999942160e-06
 1.876297499999944066e-06
 1.876297500000044651e-06
 1.876297500000021146e-06
 1.876297499999968207e-06
 1.876297500000018817e-06
 1.876297499999917385e-06
 1.876297500000068792e-06
 1.876297500000018817e-06
 1.876297499999970536e-06
 1.876297500000016276e-06
 2.412382499999963176e-06
 2.412382500000091925e-06
 2.412382499999961482e-06
 2.412382499999927601e-06
 2.412382500000056350e-06
 2.412382500000027127e-06
 2.412382499999962329e-06
 2.412382499999961059e-06
 2.412382500000124536e-06
 2.412382499999931836e-06
 2.412382499999962329e-06
 2.412382500000025433e-06
 2.412382500000025010e-06
 2.412382499999961059e-06
 2.412382500000027974e-06
 2.412382499999898378e-06
 2.412382500000091925e-06
 2.412382500000061856e-06
 2.412382499999960635e-06
 2.412382499999994940e-06
 2.948467499999952640e-06
 2.948467500000161434e-06
 2.948467499999919606e-06
 2.948467499999952217e-06
 2.948467500000040308e-06
 2.948467500000038614e-06
 2.948467499999959417e-06
 2.948467499999920453e-06
 2.948467500000197856e-06
 2.948467499999917065e-06
 2.948467499999958993e-06
 2.948467500000038191e-06
 2.948467500000039038e-06
 2.948467499999960264e-06
 2.948467500000037344e-06
 2.948467499999879372e-06
 2.948467500000118235e-06
 2.948467500000116965e-06
 2.948467499999919183e-06
 2.948467499999998380e-06
 3.484552499999942528e-06
 3.484552500000174192e-06
 3.484552499999900176e-06
 3.484552499999948034e-06
 3.484552500000036972e-06
 3.484552500000039090e-06
 3.484552499999944222e-06
 3.484552499999849354e-06
 3.484552500000272871e-06
 3.484552499999899329e-06
 3.484552499999941681e-06
 3.484552500000036972e-06
 3.484552500000029772e-06
 3.484552499999937446e-06
 3.484552500000036125e-06
 3.484552499999849354e-06
 3.484552500000129299e-06
 3.484552500000132263e-06
 3.484552499999993774e-06
 3.484552499999894247e-06
 4.020637499999936651e-06
 4.020637500000146715e-06
 4.020637499999927333e-06
 4.020637499999938345e-06
 4.020637500000039989e-06
 4.020637500000030672e-06
 4.020637499999923945e-06
 4.020637499999823995e-06
 4.020637500000252594e-06
 4.020637499999927333e-06
 4.020637499999931569e-06
 4.020637499999987473e-06
 4.020637500000107752e-06
 4.020637499999935804e-06
 4.020637500000039989e-06