<VTKFile type="UnstructuredGrid" byte_order="BigEndian">
<UnstructuredGrid><Piece NumberOfPoints="231" NumberOfCells="200">
<Points>
 <DataArray type="Float32" NumberOfComponents="3" format="ascii">
 1.807000041007995605e+00 0.000000000000000000e+00 0.000000000000000000e+00
 1.816650032997131348e+00 0.000000000000000000e+00 0.000000000000000000e+00
 1.826300024986267090e+00 0.000000000000000000e+00 0.000000000000000000e+00
 1.835950016975402832e+00 0.000000000000000000e+00 0.000000000000000000e+00
 1.845600008964538574e+00 0.000000000000000000e+00 0.000000000000000000e+00
 1.855250000953674316e+00 0.000000000000000000e+00 0.000000000000000000e+00
 1.864899992942810059e+00 0.000000000000000000e+00 0.000000000000000000e+00
 1.874549984931945801e+00 0.000000000000000000e+00 0.000000000000000000e+00
 1.884199976921081543e+00 0.000000000000000000e+00 0.000000000000000000e+00
 1.893849968910217285e+00 0.000000000000000000e+00 0.000000000000000000e+00
 1.903499960899353027e+00 0.000000000000000000e+00 0.000000000000000000e+00
 1.913149952888488770e+00 0.000000000000000000e+00 0.000000000000000000e+00
 1.922799944877624512e+00 0.000000000000000000e+00 0.000000000000000000e+00
 1.932450056076049805e+00 0.000000000000000000e+00 0.000000000000000000e+00
 1.942100048065185547e+00 0.000000000000000000e+00 0.000000000000000000e+00
 1.951750040054321289e+00 0.000000000000000000e+00 0.000000000000000000e+00
 1.961400032043457031e+00 0.000000000000000000e+00 0.000000000000000000e+00
 1.971050024032592773e+00 0.000000000000000000e+00 0.000000000000000000e+00
 1.980700016021728516e+00 0.000000000000000000e+00 0.000000000000000000e+00
 1.990350008010864258e+00 0.000000000000000000e+00 0.000000000000000000e+00
 2.000000000000000000e+00 0.000000000000000000e+00 0.000000000000000000e+00
 1.807000041007995605e+00 4.499999806284904480e-03 0.000000000000000000e+00
 1.816650032997131348e+00 4.499999806284904480e-03 0.000000000000000000e+00
 1.826300024986267090e+00 4.499999806284904480e-03 0.000000000000000000e+00
 1.835950016975402832e+00 4.499999806284904480e-03 0.000000000000000000e+00
 1.845600008964538574e+00 4.499999806284904480e-03 0.000000000000000000e+00
 1.855250000953674316e+00 4.499999806284904480e-03 0.000000000000000000e+00
 1.864899992942810059e+00 4.499999806284904480e-03 0.000000000000000000e+00
 1.874549984931945801e+00 4.499999806284904480e-03 0.000000000000000000e+00
 1.884199976921081543e+00 4.499999806284904480e-03 0.000000000000000000e+00
 1.893849968910217285e+00 4.499999806284904480e-03 0.000000000000000000e+00
 1.903499960899353027e+00 4.499999806284904480e-03 0.000000000000000000e+00
 1.913149952888488770e+00 4.499999806284904480e-03 0.000000000000000000e+00
 1.922799944877624512e+00 4.499999806284904480e-03 0.000000000000000000e+00
 1.932450056076049805e+00 4.499999806284904480e-03 0.000000000000000000e+00
 1.942100048065185547e+00 4.499999806284904480e-03 0.000000000000000000e+00
 1.951750040054321289e+00 4.499999806284904480e-03 0.000000000000000000e+00
 1.961400032043457031e+00 4.499999806284904480e-03 0.000000000000000000e+00
 1.971050024032592773e+00 4.499999806284904480e-03 0.000000000000000000e+00
 1.980700016021728516e+00 4.499999806284904480e-03 0.000000000000000000e+00
 1.990350008010864258e+00 4.499999806284904480e-03 0.000000000000000000e+00
 2.000000000000000000e+00 4.499999806284904480e-03 0.000000000000000000e+00
 1.807000041007995605e+00 8.999999612569808960e-03 0.000000000000000000e+00
 1.816650032997131348e+00 8.999999612569808960e-03 0.000000000000000000e+00
 1.826300024986267090e+00 8.999999612569808960e-03 0.000000000000000000e+00
 1.835950016975402832e+00 8.999999612569808960e-03 0.000000000000000000e+00
 1.845600008964538574e+00 8.999999612569808960e-03 0.000000000000000000e+00
 1.855250000953674316e+00 8.999999612569808960e-03 0.000000000000000000e+00
 1.864899992942810059e+00 8.999999612569808960e-03 0.000000000000000000e+00
 1.874549984931945801e+00 8.999999612569808960e-03 0.000000000000000000e+00
 1.884199976921081543e+00 8.999999612569808960e-03 0.000000000000000000e+00
 1.893849968910217285e+00 8.999999612569808960e-03 0.000000000000000000e+00
 1.903499960899353027e+00 8.999999612569808960e-03 0.000000000000000000e+00
 1.913149952888488770e+00 8.999999612569808960e-03 0.000000000000000000e+00
 1.922799944877624512e+00 8.999999612569808960e-03 0.000000000000000000e+00
 1.932450056076049805e+00 8.999999612569808960e-03 0.000000000000000000e+00
 1.942100048065185547e+00 8.999999612569808960e-03 0.000000000000000000e+00
 1.951750040054321289e+00 8.999999612569808960e-03 0.000000000000000000e+00
 1.961400032043457031e+00 8.999999612569808960e-03 0.000000000000000000e+00
 1.971050024032592773e+00 8.999999612569808960e-03 0.000000000000000000e+00
 1.980700016021728516e+00 8.999999612569808960e-03 0.000000000000000000e+00
 1.990350008010864258e+00 8.999999612569808960e-03 0.000000000000000000e+00
 2.000000000000000000e+00 8.999999612569808960e-03 0.000000000000000000e+00
 1.807000041007995605e+00 1.350000035017728806e-02 0.000000000000000000e+00
 1.816650032997131348e+00 1.350000035017728806e-02 0.000000000000000000e+00
 1.826300024986267090e+00 1.350000035017728806e-02 0.000000000000000000e+00
 1.835950016975402832e+00 1.350000035017728806e-02 0.000000000000000000e+00
 1.845600008964538574e+00 1.350000035017728806e-02 0.000000000000000000e+00
 1.855250000953674316e+00 1.350000035017728806e-02 0.000000000000000000e+00
 1.864899992942810059e+00 1.350000035017728806e-02 0.000000000000000000e+00
 1.874549984931945801e+00 1.350000035017728806e-02 0.000000000000000000e+00
 1.884199976921081543e+00 1.350000035017728806e-02 0.000000000000000000e+00
 1.893849968910217285e+00 1.350000035017728806e-02 0.000000000000000000e+00
 1.903499960899353027e+00 1.350000035017728806e-02 0.000000000000000000e+00
 1.913149952888488770e+00 1.350000035017728806e-02 0.000000000000000000e+00
 1.922799944877624512e+00 1.350000035017728806e-02 0.000000000000000000e+00
 1.932450056076049805e+00 1.350000035017728806e-02 0.000000000000000000e+00
 1.942100048065185547e+00 1.350000035017728806e-02 0.000000000000000000e+00
 1.951750040054321289e+00 1.350000035017728806e-02 0.000000000000000000e+00
 1.961400032043457031e+00 1.350000035017728806e-02 0.000000000000000000e+00
 1.971050024032592773e+00 1.350000035017728806e-02 0.000000000000000000e+00
 1.980700016021728516e+00 1.350000035017728806e-02 0.000000000000000000e+00
 1.990350008010864258e+00 1.350000035017728806e-02 0.000000000000000000e+00
 2.000000000000000000e+00 1.350000035017728806e-02 0.000000000000000000e+00
 1.807000041007995605e+00 1.799999922513961792e-02 0.000000000000000000e+00
 1.816650032997131348e+00 1.799999922513961792e-02 0.000000000000000000e+00
 1.826300024986267090e+00 1.799999922513961792e-02 0.000000000000000000e+00
 1.835950016975402832e+00 1.799999922513961792e-02 0.000000000000000000e+00
 1.845600008964538574e+00 1.799999922513961792e-02 0.000000000000000000e+00
 1.855250000953674316e+00 1.799999922513961792e-02 0.000000000000000000e+00
 1.864899992942810059e+00 1.799999922513961792e-02 0.000000000000000000e+00
 1.874549984931945801e+00 1.799999922513961792e-02 0.000000000000000000e+00
 1.884199976921081543e+00 1.799999922513961792e-02 0.000000000000000000e+00
 1.893849968910217285e+00 1.799999922513961792e-02 0.000000000000000000e+00
 1.903499960899353027e+00 1.799999922513961792e-02 0.000000000000000000e+00
 1.913149952888488770e+00 1.799999922513961792e-02 0.000000000000000000e+00
 1.922799944877624512e+00 1.799999922513961792e-02 0.000000000000000000e+00
 1.932450056076049805e+00 1.799999922513961792e-02 0.000000000000000000e+00
 1.942100048065185547e+00 1.799999922513961792e-02 0.000000000000000000e+00
 1.951750040054321289e+00 1.799999922513961792e-02 0.000000000000000000e+00
 1.961400032043457031e+00 1.799999922513961792e-02 0.000000000000000000e+00
 1.971050024032592773e+00 1.799999922513961792e-02 0.000000000000000000e+00
 1.980700016021728516e+00 1.799999922513961792e-02 0.000000000000000000e+00
 1.990350008010864258e+00 1.799999922513961792e-02 0.000000000000000000e+00
 2.000000000000000000e+00 1.799999922513961792e-02 0.000000000000000000e+00
 1.807000041007995605e+00 2.250000089406967163e-02 0.000000000000000000e+00
 1.816650032997131348e+00 2.250000089406967163e-02 0.000000000000000000e+00
 1.826300024986267090e+00 2.250000089406967163e-02 0.000000000000000000e+00
 1.835950016975402832e+00 2.250000089406967163e-02 0.000000000000000000e+00
 1.845600008964538574e+00 2.250000089406967163e-02 0.000000000000000000e+00
 1.855250000953674316e+00 2.250000089406967163e-02 0.000000000000000000e+00
 1.864899992942810059e+00 2.250000089406967163e-02 0.000000000000000000e+00
 1.874549984931945801e+00 2.250000089406967163e-02 0.000000000000000000e+00
 1.884199976921081543e+00 2.250000089406967163e-02 0.000000000000000000e+00
 1.893849968910217285e+00 2.250000089406967163e-02 0.000000000000000000e+00
 1.903499960899353027e+00 2.250000089406967163e-02 0.000000000000000000e+00
 1.913149952888488770e+00 2.250000089406967163e-02 0.000000000000000000e+00
 1.922799944877624512e+00 2.250000089406967163e-02 0.000000000000000000e+00
 1.932450056076049805e+00 2.250000089406967163e-02 0.000000000000000000e+00
 1.942100048065185547e+00 2.250000089406967163e-02 0.000000000000000000e+00
 1.951750040054321289e+00 2.250000089406967163e-02 0.000000000000000000e+00
 1.961400032043457031e+00 2.250000089406967163e-02 0.000000000000000000e+00
 1.971050024032592773e+00 2.250000089406967163e-02 0.000000000000000000e+00
 1.980700016021728516e+00 2.250000089406967163e-02 0.000000000000000000e+00
 1.990350008010864258e+00 2.250000089406967163e-02 0.000000000000000000e+00
 2.000000000000000000e+00 2.250000089406967163e-02 0.000000000000000000e+00
 1.807000041007995605e+00 2.700000070035457611e-02 0.000000000000000000e+00
 1.816650032997131348e+00 2.700000070035457611e-02 0.000000000000000000e+00
[...]
<CellData>
 <DataArray Name="pos.x" type="Float32" NumberOfComponents="1" format="ascii">
 1.811824999999976926e+00
 1.821475000000036593e+00
 1.831124999999975245e+00
 1.840775000000094863e+00
 1.850424999999952913e+00
 1.860074999999951739e+00
 1.869725000000046489e+00
 1.879374999999970930e+00
 1.889024999999974641e+00
 1.898675000000022539e+00
 1.908324999999994942e+00
 1.917974999999917607e+00
 1.927625000000070310e+00
 1.937274999999965663e+00
 1.946925000000020223e+00
 1.956574999999963982e+00
 1.966224999999991230e+00
 1.975874999999989834e+00
 1.985525000000039952e+00
 1.995174999999987486e+00
 1.811825000000037100e+00
 1.821475000000009059e+00
 1.831124999999995229e+00
 1.840774999999947203e+00
 1.850424999999947584e+00
 1.860075000000044110e+00
 1.869725000000020065e+00
 1.879374999999962714e+00
 1.889025000000022825e+00
 1.898674999999959701e+00
 1.908325000000008487e+00
 1.917974999999994212e+00
 1.927625000000083411e+00
 1.937274999999978986e+00
 1.946925000000073513e+00
 1.956574999999885822e+00
 1.966225000000016321e+00
 1.975875000000015591e+00
 1.985525000000001095e+00
 1.995174999999960841e+00
 1.811824999999952279e+00
 1.821475000000042144e+00
 1.831124999999995229e+00
 1.840775000000100636e+00
 1.850424999999947584e+00
 1.860074999999956846e+00
 1.869725000000051374e+00
 1.879374999999970930e+00
 1.889024999999997068e+00
 1.898674999999973245e+00
 1.908325000000098193e+00
 1.917974999999970676e+00
 1.927625000000016797e+00
 1.937274999999968328e+00
 1.946925000000073513e+00
 1.956574999999937559e+00
 1.966225000000068501e+00
 1.975874999999936099e+00
 1.985525000000015305e+00
 1.995174999999987264e+00
 1.811825000000024444e+00
 1.821474999999942446e+00
 1.831124999999990566e+00
 1.840775000000006045e+00
 1.850425000000000209e+00
 1.860074999999978385e+00
 1.869725000000073134e+00
 1.879374999999944285e+00
 1.889025000000001286e+00
 1.898675000000049184e+00
 1.908324999999941651e+00
 1.917975000000047281e+00
 1.927624999999990374e+00
 1.937275000000021619e+00
 1.946924999999993577e+00
 1.956574999999988851e+00
 1.966224999999991452e+00
 1.975875000000014481e+00
 1.985524999999962459e+00
 1.995175000000040111e+00
 1.811824999999973596e+00
 1.821475000000014388e+00
 1.831124999999921954e+00
 1.840775000000005157e+00
 1.850425000000049058e+00
 1.860075000000003920e+00
 1.869724999999965886e+00
 1.879374999999998685e+00
 1.889024999999974641e+00
 1.898674999999972801e+00
 1.908325000000018257e+00
 1.917974999999997321e+00
 1.927625000000016797e+00
 1.937275000000021619e+00
 1.946925000000018446e+00
 1.956574999999963982e+00
 1.966225000000042966e+00
 1.975874999999963189e+00
 1.985525000000040619e+00
 1.995174999999960619e+00
 1.811825000000075958e+00
 1.821474999999944222e+00
 1.831124999999968583e+00
 1.840775000000050232e+00
 1.850425000000004427e+00
 1.860075000000025902e+00
 1.869724999999966553e+00
 1.879375000000029106e+00
 1.889024999999973753e+00
 1.898674999999996560e+00
 1.908324999999968297e+00
 1.917974999999997321e+00
 1.927624999999963729e+00
 1.937275000000048264e+00
 1.946925000000044870e+00
 1.956574999999937337e+00
 1.966225000000042966e+00
 1.975874999999963189e+00
 1.985525000000040619e+00
 1.995174999999960841e+00
 1.811824999999998687e+00
 1.821475000000039923e+00
 1.831125000000039416e+00
 1.840774999999931660e+00
 1.850425000000026188e+00
 1.860074999999951739e+00
 1.869724999999993198e+00
 1.879374999999949170e+00
 1.889025000000076560e+00
 1.898675000000022539e+00
 1.908324999999968297e+00
 1.917974999999997321e+00
 1.927625000000040556e+00
 1.937274999999970770e+00
 1.946925000000020223e+00
 1.956575000000013720e+00
 1.966224999999991230e+00
 1.975875000000016479e+00
 1.985524999999987328e+00
 1.995174999999960841e+00
 1.811825000000056862e+00
 1.821475000000002842e+00
 1.831124999999997227e+00
 1.840775000000005157e+00
 1.850425000000026854e+00
 1.860074999999951739e+00
 1.869724999999998527e+00
 1.879374999999970930e+00
 1.889025000000000398e+00
 1.898674999999947488e+00
 1.908324999999941651e+00
 1.917975000000047281e+00
 1.927624999999990374e+00
 1.937275000000048264e+00
 1.946924999999993577e+00
 1.956575000000042142e+00
 1.966224999999911294e+00
 1.975875000000121950e+00
 1.985524999999960682e+00
 1.995175000000014132e+00
 1.811825000000023556e+00
 1.821474999999939115e+00
 1.831125000000021874e+00
 1.840775000000002937e+00
 1.850425000000024189e+00
 1.860075000000003254e+00
 1.869724999999996751e+00
 1.879374999999973372e+00
 1.889024999999923349e+00
 1.898675000000076496e+00
 1.908324999999965632e+00
 1.917974999999997321e+00
 1.927625000000042998e+00
 1.937274999999994973e+00
 1.946925000000045314e+00
 1.956574999999963982e+00
 1.966224999999989675e+00
 1.975875000000016479e+00
 1.985524999999987328e+00
 1.995175000000014132e+00
 1.811825000000008457e+00
 1.821475000000031930e+00
 1.831124999999966141e+00
 1.840774999999998718e+00
 1.850425000000028408e+00
 1.860074999999953960e+00
 1.869725000000046489e+00
 1.879374999999998685e+00
 1.889024999999947996e+00
 1.898675000000025648e+00
 1.908325000000017813e+00
 1.917974999999971342e+00
 1.927625000000016353e+00
 1.937275000000021619e+00
 1.946924999999966932e+00
 1.956575000000042142e+00
 1.966225000000016321e+00
 1.975875000000016479e+00
 1.985524999999934259e+00
 1.995175000000014132e+00
 </DataArray>
 <DataArray Name="pos.y" type="Float32" NumberOfComponents="1" format="ascii">
 2.249999999999963401e-03
 2.250000000000063581e-03
 2.249999999999964268e-03
 2.250000000000093071e-03
 2.249999999999926972e-03
 2.249999999999962100e-03
 2.250000000000073122e-03
 2.249999999999947355e-03
 2.249999999999995927e-03
 2.250000000000000264e-03
 2.250000000000068785e-03
 2.249999999999926104e-03
 2.250000000000089602e-03
 2.249999999999930441e-03
 2.250000000000029754e-03
 2.249999999999964268e-03
 2.250000000000012840e-03
 2.249999999999943451e-03
 2.250000000000023682e-03
 2.250000000000013708e-03
 6.750000000000118752e-03
 6.750000000000151712e-03
 6.750000000000093599e-03
 6.749999999999989515e-03
 6.749999999999785685e-03
 6.750000000000111813e-03
 6.750000000000148243e-03
 6.749999999999835992e-03
 6.750000000000077986e-03
 6.749999999999885432e-03
 6.750000000000036353e-03
 6.749999999999996454e-03
 6.750000000000175131e-03
 6.749999999999870687e-03
 6.750000000000195947e-03
 6.749999999999744919e-03
 6.750000000000034618e-03
 6.749999999999998189e-03
 6.750000000000060639e-03
 6.749999999999953086e-03
 1.124999999999960927e-02
 1.125000000000006724e-02
 1.124999999999993713e-02
 1.125000000000050439e-02
 1.124999999999983825e-02
 1.124999999999967519e-02
 1.125000000000021989e-02
 1.124999999999989897e-02
 1.125000000000011234e-02
 1.124999999999984693e-02
 1.125000000000029449e-02
 1.124999999999969948e-02
 1.125000000000011061e-02
 1.124999999999981744e-02
 1.125000000000019734e-02
 1.124999999999983652e-02
 1.125000000000037081e-02
 1.124999999999958498e-02
 1.125000000000024591e-02
 1.124999999999999611e-02
 1.575000000000000705e-02
 1.574999999999967398e-02
 1.575000000000009032e-02
 1.574999999999988215e-02
 1.574999999999997236e-02
 1.575000000000010419e-02
 1.575000000000021175e-02
 1.574999999999966704e-02
 1.575000000000007297e-02
 1.575000000000018052e-02
 1.574999999999978847e-02
 1.575000000000034359e-02
 1.575000000000006256e-02
 1.574999999999991337e-02
 1.574999999999988562e-02
 1.574999999999987868e-02
 1.574999999999992031e-02
 1.575000000000025338e-02
 1.574999999999959419e-02
 1.575000000000044073e-02
 2.024999999999968839e-02
 2.025000000000014289e-02
 2.024999999999932410e-02
 2.025000000000014289e-02
 2.025000000000007350e-02
 2.025000000000034064e-02
 2.024999999999963635e-02
 2.025000000000031289e-02
 2.024999999999991390e-02
 2.024999999999959818e-02
 2.025000000000020187e-02
 2.024999999999990696e-02
 2.025000000000024350e-02
 2.024999999999988268e-02
 2.025000000000038575e-02
 2.024999999999956696e-02
 2.025000000000046207e-02
 2.024999999999966757e-02
 2.025000000000058351e-02
 2.024999999999944900e-02
 2.475000000000068465e-02
 2.474999999999907135e-02
 2.474999999999956055e-02
 2.475000000000065689e-02
 2.474999999999962647e-02
 2.475000000000060138e-02
 2.474999999999987974e-02
 2.475000000000017811e-02
 2.475000000000004974e-02
 2.474999999999960218e-02
 2.474999999999974096e-02
 2.474999999999989361e-02
 2.474999999999985892e-02
 2.475000000000018505e-02
 2.475000000000088587e-02
 2.474999999999915115e-02
 2.475000000000060832e-02
 2.474999999999961259e-02
 2.475000000000072975e-02
 2.474999999999931422e-02
 2.924999999999998088e-02
 2.925000000000056374e-02
 2.925000000000060885e-02
 2.924999999999909270e-02
 2.925000000000036252e-02
 2.924999999999949168e-02
 2.925000000000013700e-02
 2.924999999999949168e-02
 2.925000000000102518e-02
 2.924999999999967210e-02
 2.925000000000033476e-02
 2.924999999999949168e-02
 2.925000000000064354e-02
 2.924999999999933903e-02
 2.925000000000016823e-02
 2.925000000000030353e-02
 2.925000000000016823e-02
 2.924999999999983169e-02
 2.925000000000047701e-02
 2.924999999999916903e-02
 3.374999999999986344e-02
 3.375000000000066835e-02
 3.374999999999998834e-02
 3.374999999999989120e-02
 3.374999999999996753e-02
 3.374999999999938466e-02
 3.374999999999923894e-02
 3.375000000000038386e-02
 3.375000000000037692e-02
 3.374999999999849648e-02
 3.374999999999912098e-02
 3.375000000000109857e-02
 3.374999999999976630e-02
 3.375000000000017569e-02
 3.374999999999973854e-02
 3.375000000000014100e-02
 3.374999999999893363e-02
 3.375000000000147327e-02
 3.374999999999976630e-02
 3.374999999999980099e-02
 3.824999999999974254e-02
 3.824999999999909028e-02
 3.825000000000112338e-02
 3.824999999999946498e-02
 3.825000000000054051e-02
 3.825000000000019357e-02
 3.824999999999992295e-02
 3.824999999999939559e-02
 3.824999999999913886e-02
 3.825000000000063766e-02
 3.824999999999926376e-02
 3.824999999999983968e-02
 3.825000000000068623e-02
 3.824999999999978417e-02
 3.825000000000058215e-02
 3.825000000000006173e-02
 3.824999999999962458e-02
 3.824999999999983968e-02
 3.824999999999990907e-02
 3.825000000000025602e-02
 4.274999999999952449e-02
 4.275000000000066941e-02
 4.275000000000016287e-02
 4.274999999999962164e-02
 4.275000000000039879e-02
 4.274999999999950367e-02
 4.275000000000071104e-02
 4.275000000000018369e-02
 4.274999999999937877e-02
 4.274999999999950367e-02
 4.275000000000120370e-02
 4.274999999999874040e-02
 4.275000000000071798e-02
 4.274999999999976735e-02
 4.274999999999927469e-02
 4.275000000000170330e-02
 4.274999999999999634e-02
 4.274999999999976735e-02
 4.274999999999923306e-02
 4.275000000000023920e-02
 </DataArray>
 <DataArray Name="pos.z" type="Float32" NumberOfComponents="1" format="ascii">
 0.000000000000000000e+00
 0.000000000000000000e+00
 0.000000000000000000e+00
 0.000000000000000000e+00
 0.000000000000000000e+00
 0.000000000000000000e+00
 0.000000000000000000e+00
 0.000000000000000000e+00
 0.000000000000000000e+00
 0.000000000000000000e+00
 0.000000000000000000e+00
 0.000000000000000000e+00
 0.000000000000000000e+00
 0.000000000000000000e+00
 0.000000000000000000e+00
 0.000000000000000000e+00
 0.000000000000000000e+00
 0.000000000000000000e+00
 0.000000000000000000e+00
 0.000000000000000000e+00
 0.000000000000000000e+00
 0.000000000000000000e+00
 0.000000000000000000e+00
 0.000000000000000000e+00
 0.000000000000000000e+00
 0.000000000000000000e+00
 0.000000000000000000e+00
 0.000000000000000000e+00
 0.000000000000000000e+00
 0.000000000000000000e+00
 0.000000000000000000e+00
 0.000000000000000000e+00
 0.000000000000000000e+00
 0.000000000000000000e+00
 0.000000000000000000e+00
 0.000000000000000000e+00
 0.000000000000000000e+00
 0.000000000000000000e+00
 0.000000000000000000e+00
 0.000000000000000000e+00
 0.000000000000000000e+00
 0.000000000000000000e+00
 0.000000000000000000e+00
 0.000000000000000000e+00
 0.000000000000000000e+00
 0.000000000000000000e+00
 0.000000000000000000e+00
 0.000000000000000000e+00
 0.000000000000000000e+00
 0.000000000000000000e+00
 0.000000000000000000e+00
 0.000000000000000000e+00
 0.000000000000000000e+00
 0.000000000000000000e+00
 0.000000000000000000e+00
 0.000000000000000000e+00
 0.000000000000000000e+00
 0.000000000000000000e+00
 0.000000000000000000e+00
 0.000000000000000000e+00
 0.000000000000000000e+00
 0.000000000000000000e+00
 0.000000000000000000e+00
 0.000000000000000000e+00
 0.000000000000000000e+00
 0.000000000000000000e+00
 0.000000000000000000e+00
 0.000000000000000000e+00
 0.000000000000000000e+00
 0.000000000000000000e+00
 0.000000000000000000e+00
 0.000000000000000000e+00
 0.000000000000000000e+00
 0.000000000000000000e+00
 0.000000000000000000e+00
 0.000000000000000000e+00
 0.000000000000000000e+00
 0.000000000000000000e+00
 0.000000000000000000e+00
 0.000000000000000000e+00
 0.000000000000000000e+00
 0.000000000000000000e+00
 0.000000000000000000e+00
 0.000000000000000000e+00
 0.000000000000000000e+00
 0.000000000000000000e+00
 0.000000000000000000e+00
 0.000000000000000000e+00
 0.000000000000000000e+00
 0.000000000000000000e+00
 0.000000000000000000e+00
 0.000000000000000000e+00
 0.000000000000000000e+00
 0.000000000000000000e+00
 0.000000000000000000e+00
 0.000000000000000000e+00
 0.000000000000000000e+00
 0.000000000000000000e+00
 0.000000000000000000e+00
 0.000000000000000000e+00
 0.000000000000000000e+00
 0.000000000000000000e+00
 0.000000000000000000e+00
 0.000000000000000000e+00
 0.000000000000000000e+00
 0.000000000000000000e+00
 0.000000000000000000e+00
 0.000000000000000000e+00
 0.000000000000000000e+00
 0.000000000000000000e+00
 0.000000000000000000e+00
 0.000000000000000000e+00
 0.000000000000000000e+00
 0.000000000000000000e+00
 0.000000000000000000e+00
 0.000000000000000000e+00
 0.000000000000000000e+00
 0.000000000000000000e+00
 0.000000000000000000e+00
 0.000000000000000000e+00
 0.000000000000000000e+00
 0.000000000000000000e+00
 0.000000000000000000e+00
 0.000000000000000000e+00
 0.000000000000000000e+00
 0.000000000000000000e+00
 0.000000000000000000e+00
 0.000000000000000000e+00
 0.000000000000000000e+00
 0.000000000000000000e+00
 0.000000000000000000e+00
 0.000000000000000000e+00
 0.000000000000000000e+00
 0.000000000000000000e+00
 0.000000000000000000e+00
 0.000000000000000000e+00
 0.000000000000000000e+00
 0.000000000000000000e+00
 0.000000000000000000e+00
 0.000000000000000000e+00
 0.000000000000000000e+00
 0.000000000000000000e+00
 0.000000000000000000e+00
 0.000000000000000000e+00
 0.000000000000000000e+00
 0.000000000000000000e+00
 0.000000000000000000e+00
 0.000000000000000000e+00
 0.000000000000000000e+00
 0.000000000000000000e+00
 0.000000000000000000e+00
 0.000000000000000000e+00
 0.000000000000000000e+00
 0.000000000000000000e+00
 0.000000000000000000e+00
 0.000000000000000000e+00
 0.000000000000000000e+00
 0.000000000000000000e+00
 0.000000000000000000e+00
 0.000000000000000000e+00
 0.000000000000000000e+00
 0.000000000000000000e+00
 0.000000000000000000e+00
 0.000000000000000000e+00
 0.000000000000000000e+00
 0.000000000000000000e+00
 0.000000000000000000e+00
 0.000000000000000000e+00
 0.000000000000000000e+00
 0.000000000000000000e+00
 0.000000000000000000e+00
 0.000000000000000000e+00
 0.000000000000000000e+00
 0.000000000000000000e+00
 0.000000000000000000e+00
 0.000000000000000000e+00
 0.000000000000000000e+00
 0.000000000000000000e+00
 0.000000000000000000e+00
 0.000000000000000000e+00
 0.000000000000000000e+00
 0.000000000000000000e+00
 0.000000000000000000e+00
 0.000000000000000000e+00
 0.000000000000000000e+00
 0.000000000000000000e+00
 0.000000000000000000e+00
 0.000000000000000000e+00
 0.000000000000000000e+00
 0.000000000000000000e+00
 0.000000000000000000e+00
 0.000000000000000000e+00
 0.000000000000000000e+00
 0.000000000000000000e+00
 0.000000000000000000e+00
 0.000000000000000000e+00
 0.000000000000000000e+00
 0.000000000000000000e+00
 0.000000000000000000e+00
 0.000000000000000000e+00
 </DataArray>
 <DataArray Name="volume" type="Float32" NumberOfComponents="1" format="ascii">
 4.342499999999971383e-05
 4.342500000000144855e-05
 4.342499999999971383e-05
 4.342499999999624438e-05
 4.342500000000144855e-05
 4.342500000000144855e-05
 4.342499999999797911e-05
 4.342499999999971383e-05
 4.342500000000144855e-05
 4.342499999999971383e-05
 4.342499999999971383e-05
 4.342500000000144855e-05
 4.342499999999797911e-05
 4.342499999999971383e-05
 4.342500000000144855e-05
 4.342499999999971383e-05
 4.342500000000144855e-05
 4.342500000000144855e-05
 4.342499999999624438e-05
 4.342500000000144855e-05
 4.342499999999846700e-05
 4.342500000000113684e-05
 4.342499999999797911e-05
 4.342499999999943600e-05
 4.342499999999997133e-05
 4.342500000000108263e-05
 4.342499999999820272e-05
 4.342500000000155020e-05
 4.342499999999952409e-05
 4.342500000000153664e-05
 4.342499999999979514e-05
 4.342499999999971383e-05
 4.342499999999791812e-05
 4.342499999999976804e-05
 4.342500000000144855e-05
 4.342500000000144855e-05
 4.342499999999971383e-05
 4.342499999999971383e-05
 4.342499999999796555e-05
 4.342500000000144855e-05
 4.342500000000069639e-05
 4.342500000000256664e-05
 4.342499999999797911e-05
 4.342499999999770128e-05
 4.342499999999997133e-05
 4.342500000000293933e-05
 4.342499999999949021e-05
 4.342499999999992389e-05
 4.342499999999990356e-05
 4.342500000000127237e-05
 4.342499999999813496e-05
 4.342500000000144855e-05
 4.342499999999785036e-05
 4.342500000000144855e-05
 4.342500000000144855e-05
 4.342499999999978837e-05
 4.342499999999791812e-05
 4.342499999999975449e-05
 4.342500000000144855e-05
 4.342499999999970705e-05
 4.342499999999862963e-05
 4.342500000000398965e-05
 4.342499999999741668e-05
 4.342500000000062185e-05
 4.342499999999971383e-05
 4.342500000000144855e-05
 4.342499999999797911e-05
 4.342499999999971383e-05
 4.342500000000144855e-05
 4.342499999999971383e-05
 4.342499999999971383e-05
 4.342499999999971383e-05
 4.342499999999797911e-05
 4.342500000000144855e-05
 4.342500000000144855e-05
 4.342499999999797911e-05
 4.342500000000138757e-05
 4.342499999999806042e-05
 4.342500000000315617e-05
 4.342499999999797911e-05
 4.342499999999993745e-05
 4.342500000000194322e-05
 4.342499999999971383e-05
 4.342500000000034402e-05
 4.342499999999901587e-05
 4.342500000000096066e-05
 4.342499999999752510e-05
 4.342500000000055409e-05
 4.342500000000144855e-05
 4.342500000000109619e-05
 4.342499999999829759e-05
 4.342500000000144855e-05
 4.342499999999772838e-05
 4.342500000000144855e-05
 4.342499999999989679e-05
 4.342499999999971383e-05
 4.342499999999971383e-05
 4.342500000000144855e-05
 4.342499999999797911e-05
 4.342500000000143500e-05
 4.342499999999797911e-05
 4.342500000000491800e-05
 4.342499999999797911e-05
 4.342499999999908364e-05
 4.342500000000041178e-05
 4.342499999999971383e-05
 4.342499999999797911e-05
 4.342500000000144855e-05
 4.342500000000067606e-05
 4.342500000000041856e-05
 4.342499999999971383e-05
 4.342500000000144855e-05
 4.342499999999797911e-05
 4.342500000000144855e-05
 4.342499999999971383e-05
 4.342499999999971383e-05
 4.342499999999971383e-05
 4.342500000000144855e-05
 4.342499999999797911e-05
 4.342500000000144855e-05
 4.342499999999928692e-05
 4.342500000000132658e-05
 4.342499999999685425e-05
 4.342500000000207874e-05
 4.342499999999919206e-05
 4.342500000000144855e-05
 4.342499999999797911e-05
 4.342500000000144855e-05
 4.342499999999971383e-05
 4.342499999999971383e-05
 4.342499999999971383e-05
 4.342500000000144855e-05
 4.342499999999624438e-05
 4.342500000000318328e-05
 4.342500000000144855e-05
 4.342499999999624438e-05
 4.342500000000144855e-05
 4.342500000000144855e-05
 4.342499999999797911e-05
 4.342500000000144855e-05
 4.342499999999971383e-05
 4.342499999999971383e-05
 4.342499999999915140e-05
 4.342500000000034402e-05
 4.342499999999971383e-05
 4.342500000000144855e-05
 4.342499999999971383e-05
 4.342499999999971383e-05
 4.342500000000067606e-05
 4.342500000000215328e-05
 4.342499999999971383e-05
 4.342499999999971383e-05
 4.342499999999797911e-05
 4.342500000000144855e-05
 4.342500000000144855e-05