<VTKFile type="UnstructuredGrid" byte_order="BigEndian">
<UnstructuredGrid><Piece NumberOfPoints="231" NumberOfCells="200">
<Points>
 <DataArray type="Float32" NumberOfComponents="3" format="ascii">
 9.879999756813049316e-01 0.000000000000000000e+00 0.000000000000000000e+00
 1.047099947929382324e+00 0.000000000000000000e+00 0.000000000000000000e+00
 1.106199979782104492e+00 0.000000000000000000e+00 0.000000000000000000e+00
 1.165300011634826660e+00 0.000000000000000000e+00 0.000000000000000000e+00
 1.224400043487548828e+00 0.000000000000000000e+00 0.000000000000000000e+00
 1.283499956130981445e+00 0.000000000000000000e+00 0.000000000000000000e+00
 1.342599987983703613e+00 0.000000000000000000e+00 0.000000000000000000e+00
 1.401700019836425781e+00 0.000000000000000000e+00 0.000000000000000000e+00
 1.460800051689147949e+00 0.000000000000000000e+00 0.000000000000000000e+00
 1.519899964332580566e+00 0.000000000000000000e+00 0.000000000000000000e+00
 1.578999996185302734e+00 0.000000000000000000e+00 0.000000000000000000e+00
 1.638100028038024902e+00 0.000000000000000000e+00 0.000000000000000000e+00
 1.697199940681457520e+00 0.000000000000000000e+00 0.000000000000000000e+00
 1.756299972534179688e+00 0.000000000000000000e+00 0.000000000000000000e+00
 1.815400004386901855e+00 0.000000000000000000e+00 0.000000000000000000e+00
 1.874500036239624023e+00 0.000000000000000000e+00 0.000000000000000000e+00
 1.933599948883056641e+00 0.000000000000000000e+00 0.000000000000000000e+00
 1.992699980735778809e+00 0.000000000000000000e+00 0.000000000000000000e+00
 2.051800012588500977e+00 0.000000000000000000e+00 0.000000000000000000e+00
 2.110899925231933594e+00 0.000000000000000000e+00 0.000000000000000000e+00
 2.170000076293945312e+00 0.000000000000000000e+00 0.000000000000000000e+00
 9.879999756813049316e-01 3.860000148415565491e-02 0.000000000000000000e+00
 1.047099947929382324e+00 3.695499897003173828e-02 0.000000000000000000e+00
 1.106199979782104492e+00 3.531000018119812012e-02 0.000000000000000000e+00
 1.165300011634826660e+00 3.366500139236450195e-02 0.000000000000000000e+00
 1.224400043487548828e+00 3.201999887824058533e-02 0.000000000000000000e+00
 1.283499956130981445e+00 3.037500008940696716e-02 0.000000000000000000e+00
 1.342599987983703613e+00 2.872999943792819977e-02 0.000000000000000000e+00
 1.401700019836425781e+00 2.708500064909458160e-02 0.000000000000000000e+00
 1.460800051689147949e+00 2.543999999761581421e-02 0.000000000000000000e+00
 1.519899964332580566e+00 2.379499934613704681e-02 0.000000000000000000e+00
 1.578999996185302734e+00 2.215000055730342865e-02 0.000000000000000000e+00
 1.638100028038024902e+00 2.050499990582466125e-02 0.000000000000000000e+00
 1.697199940681457520e+00 1.885999925434589386e-02 0.000000000000000000e+00
 1.756299972534179688e+00 1.721500046551227570e-02 0.000000000000000000e+00
 1.815400004386901855e+00 1.556999981403350830e-02 0.000000000000000000e+00
 1.874500036239624023e+00 1.392500009387731552e-02 0.000000000000000000e+00
 1.933599948883056641e+00 1.228000037372112274e-02 0.000000000000000000e+00
 1.992699980735778809e+00 1.063499972224235535e-02 0.000000000000000000e+00
 2.051800012588500977e+00 8.990000002086162567e-03 0.000000000000000000e+00
 2.110899925231933594e+00 7.344999816268682480e-03 0.000000000000000000e+00
 2.170000076293945312e+00 5.700000096112489700e-03 0.000000000000000000e+00
 9.879999756813049316e-01 7.720000296831130981e-02 0.000000000000000000e+00
 1.047099947929382324e+00 7.390999794006347656e-02 0.000000000000000000e+00
 1.106199979782104492e+00 7.062000036239624023e-02 0.000000000000000000e+00
 1.165300011634826660e+00 6.733000278472900391e-02 0.000000000000000000e+00
 1.224400043487548828e+00 6.403999775648117065e-02 0.000000000000000000e+00
 1.283499956130981445e+00 6.075000017881393433e-02 0.000000000000000000e+00
 1.342599987983703613e+00 5.745999887585639954e-02 0.000000000000000000e+00
 1.401700019836425781e+00 5.417000129818916321e-02 0.000000000000000000e+00
 1.460800051689147949e+00 5.087999999523162842e-02 0.000000000000000000e+00
 1.519899964332580566e+00 4.758999869227409363e-02 0.000000000000000000e+00
 1.578999996185302734e+00 4.430000111460685730e-02 0.000000000000000000e+00
 1.638100028038024902e+00 4.100999981164932251e-02 0.000000000000000000e+00
 1.697199940681457520e+00 3.771999850869178772e-02 0.000000000000000000e+00
 1.756299972534179688e+00 3.443000093102455139e-02 0.000000000000000000e+00
 1.815400004386901855e+00 3.113999962806701660e-02 0.000000000000000000e+00
 1.874500036239624023e+00 2.785000018775463104e-02 0.000000000000000000e+00
 1.933599948883056641e+00 2.456000074744224548e-02 0.000000000000000000e+00
 1.992699980735778809e+00 2.126999944448471069e-02 0.000000000000000000e+00
 2.051800012588500977e+00 1.798000000417232513e-02 0.000000000000000000e+00
 2.110899925231933594e+00 1.468999963253736496e-02 0.000000000000000000e+00
 2.170000076293945312e+00 1.140000019222497940e-02 0.000000000000000000e+00
 9.879999756813049316e-01 1.158000007271766663e-01 0.000000000000000000e+00
 1.047099947929382324e+00 1.108649969100952148e-01 0.000000000000000000e+00
 1.106199979782104492e+00 1.059300005435943604e-01 0.000000000000000000e+00
 1.165300011634826660e+00 1.009949967265129089e-01 0.000000000000000000e+00
 1.224400043487548828e+00 9.606000036001205444e-02 0.000000000000000000e+00
 1.283499956130981445e+00 9.112499654293060303e-02 0.000000000000000000e+00
 1.342599987983703613e+00 8.619000017642974854e-02 0.000000000000000000e+00
 1.401700019836425781e+00 8.125499635934829712e-02 0.000000000000000000e+00
 1.460800051689147949e+00 7.631999999284744263e-02 0.000000000000000000e+00
 1.519899964332580566e+00 7.138500362634658813e-02 0.000000000000000000e+00
 1.578999996185302734e+00 6.644999980926513672e-02 0.000000000000000000e+00
 1.638100028038024902e+00 6.151499971747398376e-02 0.000000000000000000e+00
 1.697199940681457520e+00 5.657999962568283081e-02 0.000000000000000000e+00
 1.756299972534179688e+00 5.164499953389167786e-02 0.000000000000000000e+00
 1.815400004386901855e+00 4.670999944210052490e-02 0.000000000000000000e+00
 1.874500036239624023e+00 4.177499935030937195e-02 0.000000000000000000e+00
 1.933599948883056641e+00 3.683999925851821899e-02 0.000000000000000000e+00
 1.992699980735778809e+00 3.190499916672706604e-02 0.000000000000000000e+00
 2.051800012588500977e+00 2.696999907493591309e-02 0.000000000000000000e+00
 2.110899925231933594e+00 2.203500084578990936e-02 0.000000000000000000e+00
 2.170000076293945312e+00 1.710000075399875641e-02 0.000000000000000000e+00
 9.879999756813049316e-01 1.544000059366226196e-01 0.000000000000000000e+00
 1.047099947929382324e+00 1.478199958801269531e-01 0.000000000000000000e+00
 1.106199979782104492e+00 1.412400007247924805e-01 0.000000000000000000e+00
 1.165300011634826660e+00 1.346600055694580078e-01 0.000000000000000000e+00
 1.224400043487548828e+00 1.280799955129623413e-01 0.000000000000000000e+00
 1.283499956130981445e+00 1.215000003576278687e-01 0.000000000000000000e+00
 1.342599987983703613e+00 1.149199977517127991e-01 0.000000000000000000e+00
 1.401700019836425781e+00 1.083400025963783264e-01 0.000000000000000000e+00
 1.460800051689147949e+00 1.017599999904632568e-01 0.000000000000000000e+00
 1.519899964332580566e+00 9.517999738454818726e-02 0.000000000000000000e+00
 1.578999996185302734e+00 8.860000222921371460e-02 0.000000000000000000e+00
 1.638100028038024902e+00 8.201999962329864502e-02 0.000000000000000000e+00
 1.697199940681457520e+00 7.543999701738357544e-02 0.000000000000000000e+00
 1.756299972534179688e+00 6.886000186204910278e-02 0.000000000000000000e+00
 1.815400004386901855e+00 6.227999925613403320e-02 0.000000000000000000e+00
 1.874500036239624023e+00 5.570000037550926208e-02 0.000000000000000000e+00
 1.933599948883056641e+00 4.912000149488449097e-02 0.000000000000000000e+00
 1.992699980735778809e+00 4.253999888896942139e-02 0.000000000000000000e+00
 2.051800012588500977e+00 3.596000000834465027e-02 0.000000000000000000e+00
 2.110899925231933594e+00 2.937999926507472992e-02 0.000000000000000000e+00
 2.170000076293945312e+00 2.280000038444995880e-02 0.000000000000000000e+00
 9.879999756813049316e-01 1.930000036954879761e-01 0.000000000000000000e+00
 1.047099947929382324e+00 1.847749948501586914e-01 0.000000000000000000e+00
 1.106199979782104492e+00 1.765500009059906006e-01 0.000000000000000000e+00
 1.165300011634826660e+00 1.683250069618225098e-01 0.000000000000000000e+00
 1.224400043487548828e+00 1.600999981164932251e-01 0.000000000000000000e+00
 1.283499956130981445e+00 1.518750041723251343e-01 0.000000000000000000e+00
 1.342599987983703613e+00 1.436499953269958496e-01 0.000000000000000000e+00
 1.401700019836425781e+00 1.354250013828277588e-01 0.000000000000000000e+00
 1.460800051689147949e+00 1.272000074386596680e-01 0.000000000000000000e+00
 1.519899964332580566e+00 1.189749985933303833e-01 0.000000000000000000e+00
 1.578999996185302734e+00 1.107499971985816956e-01 0.000000000000000000e+00
 1.638100028038024902e+00 1.025250032544136047e-01 0.000000000000000000e+00
 1.697199940681457520e+00 9.430000185966491699e-02 0.000000000000000000e+00
 1.756299972534179688e+00 8.607500046491622925e-02 0.000000000000000000e+00
 1.815400004386901855e+00 7.784999907016754150e-02 0.000000000000000000e+00
 1.874500036239624023e+00 6.962499767541885376e-02 0.000000000000000000e+00
 1.933599948883056641e+00 6.140000000596046448e-02 0.000000000000000000e+00
 1.992699980735778809e+00 5.317499861121177673e-02 0.000000000000000000e+00
 2.051800012588500977e+00 4.495000094175338745e-02 0.000000000000000000e+00
 2.110899925231933594e+00 3.672499954700469971e-02 0.000000000000000000e+00
 2.170000076293945312e+00 2.850000001490116119e-02 0.000000000000000000e+00
 9.879999756813049316e-01 2.316000014543533325e-01 0.000000000000000000e+00
 1.047099947929382324e+00 2.217299938201904297e-01 0.000000000000000000e+00
[...]
<CellData>
 <DataArray Name="pos.x" type="Float32" NumberOfComponents="1" format="ascii">
 1.017335543643701046e+00
 1.076425780114854458e+00
 1.135515085175787808e+00
 1.194603318870372632e+00
 1.253690311723690831e+00
 1.312775856526519069e+00
 1.371859697214010243e+00
 1.430941513564969236e+00
 1.490020899766427487e+00
 1.549097333768632456e+00
 1.608170132458099255e+00
 1.667238384351572122e+00
 1.726300845460856825e+00
 1.785355772456911572e+00
 1.844400644176984461e+00
 1.903431673344785580e+00
 1.962442897665291452e+00
 2.021424356687886004e+00
 2.080358065503522091e+00
 2.139207895745504739e+00
 1.017335543643696827e+00
 1.076425780114857345e+00
 1.135515085175782479e+00
 1.194603318870367969e+00
 1.253690311723692385e+00
 1.312775856526519735e+00
 1.371859697214009577e+00
 1.430941513564975009e+00
 1.490020899766424822e+00
 1.549097333768637785e+00
 1.608170132458102586e+00
 1.667238384351586111e+00
 1.726300845460848832e+00
 1.785355772456914014e+00
 1.844400644176984461e+00
 1.903431673344783359e+00
 1.962442897665293007e+00
 2.021424356687891777e+00
 2.080358065503511433e+00
 2.139207895745498078e+00
 1.017335543643701934e+00
 1.076425780114855346e+00
 1.135515085175786032e+00
 1.194603318870367081e+00
 1.253690311723698159e+00
 1.312775856526519735e+00
 1.371859697214013574e+00
 1.430941513564965017e+00
 1.490020899766416607e+00
 1.549097333768637785e+00
 1.608170132458101032e+00
 1.667238384351575231e+00
 1.726300845460844613e+00
 1.785355772456912016e+00
 1.844400644176986903e+00
 1.903431673344777586e+00
 1.962442897665282127e+00
 2.021424356687897994e+00
 2.080358065503538967e+00
 2.139207895745505184e+00
 1.017335543643704820e+00
 1.076425780114849795e+00
 1.135515085175793581e+00
 1.194603318870368414e+00
 1.253690311723697715e+00
 1.312775856526519735e+00
 1.371859697214009355e+00
 1.430941513564961909e+00
 1.490020899766432816e+00
 1.549097333768626683e+00
 1.608170132458093038e+00
 1.667238384351575675e+00
 1.726300845460854161e+00
 1.785355772456918011e+00
 1.844400644176987791e+00
 1.903431673344777586e+00
 1.962442897665282571e+00
 2.021424356687906432e+00
 2.080358065503512766e+00
 2.139207895745498966e+00
 1.017335543643702822e+00
 1.076425780114860453e+00
 1.135515085175786476e+00
 1.194603318870365971e+00
 1.253690311723691719e+00
 1.312775856526519958e+00
 1.371859697214012019e+00
 1.430941513564967016e+00
 1.490020899766430595e+00
 1.549097333768637341e+00
 1.608170132458094148e+00
 1.667238384351582337e+00
 1.726300845460850830e+00
 1.785355772456905799e+00
 1.844400644176987791e+00
 1.903431673344762265e+00
 1.962442897665299002e+00
 2.021424356687886004e+00
 2.080358065503526976e+00
 2.139207895745497634e+00
 1.017335543643701934e+00
 1.076425780114854680e+00
 1.135515085175787808e+00
 1.194603318870369746e+00
 1.253690311723695716e+00
 1.312775856526514628e+00
 1.371859697214010021e+00
 1.430941513564969014e+00
 1.490020899766424156e+00
 1.549097333768645557e+00
 1.608170132458094592e+00
 1.667238384351581226e+00
 1.726300845460842615e+00
 1.785355772456911572e+00
 1.844400644176968473e+00
 1.903431673344768704e+00
 1.962442897665300778e+00
 2.021424356687918422e+00
 2.080358065503502552e+00
 2.139207895745509180e+00
 1.017335543643699047e+00
 1.076425780114854236e+00
 1.135515085175792693e+00
 1.194603318870364195e+00
 1.253690311723698381e+00
 1.312775856526515073e+00
 1.371859697214017126e+00
 1.430941513564969014e+00
 1.490020899766428597e+00
 1.549097333768637785e+00
 1.608170132458104806e+00
 1.667238384351569236e+00
 1.726300845460846389e+00
 1.785355772456916235e+00
 1.844400644176967585e+00
 1.903431673344796904e+00
 1.962442897665274133e+00
 2.021424356687909984e+00
 2.080358065503512766e+00
 2.139207895745494969e+00
 1.017335543643702822e+00
 1.076425780114858011e+00
 1.135515085175788030e+00
 1.194603318870370856e+00
 1.253690311723696160e+00
 1.312775856526517737e+00
 1.371859697214007134e+00
 1.430941513564967016e+00
 1.490020899766429041e+00
 1.549097333768645557e+00
 1.608170132458096591e+00
 1.667238384351567237e+00
 1.726300845460853273e+00
 1.785355772456918677e+00
 1.844400644176986903e+00
 1.903431673344794017e+00
 1.962442897665260810e+00
 2.021424356687918422e+00
 2.080358065503502996e+00
 2.139207895745494969e+00
 1.017335543643701268e+00
 1.076425780114853126e+00
 1.135515085175781813e+00
 1.194603318870366415e+00
 1.253690311723701489e+00
 1.312775856526518847e+00
 1.371859697214008467e+00
 1.430941513564965017e+00
 1.490020899766431040e+00
 1.549097333768639784e+00
 1.608170132458090817e+00
 1.667238384351582337e+00
 1.726300845460846389e+00
 1.785355772456916235e+00
 1.844400644176984461e+00
 1.903431673344785580e+00
 1.962442897665284347e+00
 2.021424356687893997e+00
 2.080358065503506992e+00
 2.139207895745545596e+00
 1.017335543643702378e+00
 1.076425780114856234e+00
 1.135515085175784700e+00
 1.194603318870370412e+00
 1.253690311723700157e+00
 1.312775856526518847e+00
 1.371859697214014240e+00
 1.430941513564968348e+00
 1.490020899766426155e+00
 1.549097333768637563e+00
 1.608170132458098589e+00
 1.667238384351578118e+00
 1.726300845460847722e+00
 1.785355772456906687e+00
 1.844400644176973580e+00
 1.903431673344770703e+00
 1.962442897665278130e+00
 2.021424356687890000e+00
 2.080358065503512766e+00
 2.139207895745482979e+00
 </DataArray>
 <DataArray Name="pos.y" type="Float32" NumberOfComponents="1" format="ascii">
 1.889173460834266127e-02
 1.806937048824924438e-02
 1.724701933067534013e-02
 1.642468308340317221e-02
 1.560236410502974756e-02
 1.478006527930521112e-02
 1.395779016990651711e-02
 1.313554323338090961e-02
 1.231333011746388144e-02
 1.149115808756843299e-02
 1.066903665064669951e-02
 9.846978491892102725e-03
 9.025000924000955646e-03
 8.203128209038687904e-03
 7.381395434254409138e-03
 6.559855307511303600e-03
 5.738590806604114240e-03
 4.917740552016963695e-03
 4.097554841342716629e-03
 3.278536476299990631e-03
 5.667520382502785198e-02
 5.420811146474797254e-02
 5.174105799202578793e-02
 4.927404925020949233e-02
 4.680709231508926177e-02
 4.434019583791555530e-02
 4.187337050971953051e-02
 3.940662970014296995e-02
 3.693999035239160789e-02
 3.447347426270535448e-02
 3.200710995194001873e-02
 2.954093547567647471e-02
 2.707500277200273336e-02
 2.460938462711602034e-02
 2.214418630276315109e-02
 1.967956592253392381e-02
 1.721577241981238696e-02
 1.475322165605087721e-02
 1.229266452402813514e-02
 9.835609428899987072e-03
 9.445867304171334800e-02
 9.034685244124644743e-02
 8.623509665337650287e-02
 8.212341541701582981e-02
 7.801182052514887832e-02
 7.390032639652581448e-02
 6.978895084953279371e-02
 6.567771616690451508e-02
 6.156665058731913831e-02
 5.745579043784251189e-02
 5.334518325323334142e-02
 4.923489245946049975e-02
 4.512500462000455792e-02
 4.101564104519338921e-02
 3.690697717127194855e-02
 3.279927653755655703e-02
 2.869295403302051309e-02
 2.458870276008506481e-02
 2.048777420671371238e-02
 1.639268238149996573e-02
 1.322421422583991146e-01
 1.264855934177444297e-01
 1.207291353147281615e-01
 1.149727815838220146e-01
 1.092165487352087516e-01
 1.034604569551362263e-01
 9.770453118934559200e-02
 9.194880263366612960e-02
 8.619331082224727936e-02
 8.043810661297885745e-02
 7.468325655452676126e-02
 6.892884944324464969e-02
 6.317500646800673636e-02
 5.742189746327086564e-02
 5.166976803978105132e-02
 4.591898715257902025e-02
 4.017013564622872596e-02
 3.442418386411894710e-02
 2.868288388939893921e-02
 2.294975533409989929e-02
 1.700256114750843262e-01
 1.626243343942439246e-01
 1.552231739760780993e-01
 1.478221477506280745e-01
 1.404212769452678200e-01
 1.330205875137464855e-01
 1.256201115291590564e-01
 1.182198891004285768e-01
 1.108199710571746988e-01
 1.034204227881163618e-01
 9.602132985582008395e-02
 8.862280642702914657e-02
 8.122500831600837357e-02
 7.382815388134804369e-02
 6.643255890828955734e-02
 5.903869776760105326e-02
 5.164731725943736557e-02
 4.425966496815273571e-02
 3.687799357208454420e-02
 2.950682828669967672e-02
 2.078090806917700650e-01
 1.987630753707417264e-01
 1.897172126374290502e-01
 1.806715139174346341e-01
 1.716260051553278043e-01
 1.625807180723565504e-01
 1.535356918689716466e-01
 1.444909755671907881e-01
 1.354466312921021043e-01
 1.264027389632537413e-01
 1.173594031571129626e-01
 1.083167634108132271e-01
 9.927501016400971934e-02
 9.023441029942541602e-02
 8.119534977679793153e-02
 7.215840838262378709e-02
 6.312449887264584558e-02
 5.409514607218741250e-02
 4.507310325476947266e-02
 3.606390123930004049e-02
 2.455925499084547214e-01
 2.349018163472400555e-01
 2.242112512987803064e-01
 2.135208800842408883e-01
 2.028307333653871225e-01
 1.921408486309669206e-01
 1.814512722087854302e-01
 1.707620620339526663e-01
 1.600732915270302315e-01
 1.493850551383903991e-01
 1.386974764584074926e-01
 1.280107203945972660e-01
 1.173250120120120227e-01
 1.066406667175031214e-01
 9.595814064530643062e-02
 8.527811899764758952e-02
 7.460168048585336109e-02
 6.393062717622104152e-02
 5.326821293745545582e-02
 4.262097419189975200e-02
 2.833760191251405991e-01
 2.710405573237390509e-01
 2.587052899601304801e-01
 2.463702462510472257e-01
 2.340354615754469403e-01
 2.217009791895775683e-01
 2.093668525485976595e-01
 1.970331485007136563e-01
 1.846999517619578590e-01
 1.723673713135282781e-01
 1.600355497596996635e-01
 1.477046773783813050e-01
 1.353750138600137987e-01
 1.230469231355806187e-01
 1.107209315138160677e-01
 9.839782961266986538e-02
 8.607886209906091823e-02
 7.376610828025544075e-02
 6.146332262014065489e-02
 4.917804714449950515e-02
 3.211594883418261714e-01
 3.071792983002373800e-01
 2.931993286214800709e-01
 2.792196124178538685e-01
 2.652401897855066748e-01
 2.512611097481881051e-01
 2.372824328884107770e-01
 2.233042349674756455e-01
 2.093266119968867633e-01
 1.953496874886641033e-01
 1.813736230609925837e-01
 1.673986343621662043e-01
 1.534250157080156995e-01
 1.394531795536581020e-01
 1.254837223823248582e-01
 1.115175402276921413e-01
 9.755604371227005744e-02
 8.360158938428859099e-02
 6.965843230282597887e-02
 5.573512009710074322e-02
 3.589429575585114107e-01
 3.433180392767354316e-01
 3.276933672828316602e-01
 3.120689785846594289e-01
 2.964449179955668812e-01
 2.808212403067983920e-01
 2.651980132282245051e-01
 2.495753214342384396e-01
 2.339532722318137248e-01
 2.183320036638002615e-01
 2.027116963622883350e-01
 1.870925913459500767e-01
 1.714750175560171286e-01
 1.558594359717349054e-01
 1.402465132508334267e-01
 1.246372508427144310e-01
 1.090332253254774897e-01
 9.343707048832297635e-02
 7.785354198551155958e-02
 6.229219304969951104e-02
 </DataArray>
 <DataArray Name="pos.z" type="Float32" NumberOfComponents="1" format="ascii">
 0.000000000000000000e+00
 0.000000000000000000e+00
 0.000000000000000000e+00
 0.000000000000000000e+00
 0.000000000000000000e+00
 0.000000000000000000e+00
 0.000000000000000000e+00
 0.000000000000000000e+00
 0.000000000000000000e+00
 0.000000000000000000e+00
 0.000000000000000000e+00
 0.000000000000000000e+00
 0.000000000000000000e+00
 0.000000000000000000e+00
 0.000000000000000000e+00
 0.000000000000000000e+00
 0.000000000000000000e+00
 0.000000000000000000e+00
 0.000000000000000000e+00
 0.000000000000000000e+00
 0.000000000000000000e+00
 0.000000000000000000e+00
 0.000000000000000000e+00
 0.000000000000000000e+00
 0.000000000000000000e+00
 0.000000000000000000e+00
 0.000000000000000000e+00
 0.000000000000000000e+00
 0.000000000000000000e+00
 0.000000000000000000e+00
 0.000000000000000000e+00
 0.000000000000000000e+00
 0.000000000000000000e+00
 0.000000000000000000e+00
 0.000000000000000000e+00
 0.000000000000000000e+00
 0.000000000000000000e+00
 0.000000000000000000e+00
 0.000000000000000000e+00
 0.000000000000000000e+00
 0.000000000000000000e+00
 0.000000000000000000e+00
 0.000000000000000000e+00
 0.000000000000000000e+00
 0.000000000000000000e+00
 0.000000000000000000e+00
 0.000000000000000000e+00
 0.000000000000000000e+00
 0.000000000000000000e+00
 0.000000000000000000e+00
 0.000000000000000000e+00
 0.000000000000000000e+00
 0.000000000000000000e+00
 0.000000000000000000e+00
 0.000000000000000000e+00
 0.000000000000000000e+00
 0.000000000000000000e+00
 0.000000000000000000e+00
 0.000000000000000000e+00
 0.000000000000000000e+00
 0.000000000000000000e+00
 0.000000000000000000e+00
 0.000000000000000000e+00
 0.000000000000000000e+00
 0.000000000000000000e+00
 0.000000000000000000e+00
 0.000000000000000000e+00
 0.000000000000000000e+00
 0.000000000000000000e+00
 0.000000000000000000e+00
 0.000000000000000000e+00
 0.000000000000000000e+00
 0.000000000000000000e+00
 0.000000000000000000e+00
 0.000000000000000000e+00
 0.000000000000000000e+00
 0.000000000000000000e+00
 0.000000000000000000e+00
 0.000000000000000000e+00
 0.000000000000000000e+00
 0.000000000000000000e+00
 0.000000000000000000e+00
 0.000000000000000000e+00
 0.000000000000000000e+00
 0.000000000000000000e+00
 0.000000000000000000e+00
 0.000000000000000000e+00
 0.000000000000000000e+00
 0.000000000000000000e+00
 0.000000000000000000e+00
 0.000000000000000000e+00
 0.000000000000000000e+00
 0.000000000000000000e+00
 0.000000000000000000e+00
 0.000000000000000000e+00
 0.000000000000000000e+00
 0.000000000000000000e+00
 0.000000000000000000e+00
 0.000000000000000000e+00
 0.000000000000000000e+00
 0.000000000000000000e+00
 0.000000000000000000e+00
 0.000000000000000000e+00
 0.000000000000000000e+00
 0.000000000000000000e+00
 0.000000000000000000e+00
 0.000000000000000000e+00
 0.000000000000000000e+00
 0.000000000000000000e+00
 0.000000000000000000e+00
 0.000000000000000000e+00
 0.000000000000000000e+00
 0.000000000000000000e+00
 0.000000000000000000e+00
 0.000000000000000000e+00
 0.000000000000000000e+00
 0.000000000000000000e+00
 0.000000000000000000e+00
 0.000000000000000000e+00
 0.000000000000000000e+00
 0.000000000000000000e+00
 0.000000000000000000e+00
 0.000000000000000000e+00
 0.000000000000000000e+00
 0.000000000000000000e+00
 0.000000000000000000e+00
 0.000000000000000000e+00
 0.000000000000000000e+00
 0.000000000000000000e+00
 0.000000000000000000e+00
 0.000000000000000000e+00
 0.000000000000000000e+00
 0.000000000000000000e+00
 0.000000000000000000e+00
 0.000000000000000000e+00
 0.000000000000000000e+00
 0.000000000000000000e+00
 0.000000000000000000e+00
 0.000000000000000000e+00
 0.000000000000000000e+00
 0.000000000000000000e+00
 0.000000000000000000e+00
 0.000000000000000000e+00
 0.000000000000000000e+00
 0.000000000000000000e+00
 0.000000000000000000e+00
 0.000000000000000000e+00
 0.000000000000000000e+00
 0.000000000000000000e+00
 0.000000000000000000e+00
 0.000000000000000000e+00
 0.000000000000000000e+00
 0.000000000000000000e+00
 0.000000000000000000e+00
 0.000000000000000000e+00
 0.000000000000000000e+00
 0.000000000000000000e+00
 0.000000000000000000e+00
 0.000000000000000000e+00
 0.000000000000000000e+00
 0.000000000000000000e+00
 0.000000000000000000e+00
 0.000000000000000000e+00
 0.000000000000000000e+00
 0.000000000000000000e+00
 0.000000000000000000e+00
 0.000000000000000000e+00
 0.000000000000000000e+00
 0.000000000000000000e+00
 0.000000000000000000e+00
 0.000000000000000000e+00
 0.000000000000000000e+00
 0.000000000000000000e+00
 0.000000000000000000e+00
 0.000000000000000000e+00
 0.000000000000000000e+00
 0.000000000000000000e+00
 0.000000000000000000e+00
 0.000000000000000000e+00
 0.000000000000000000e+00
 0.000000000000000000e+00
 0.000000000000000000e+00
 0.000000000000000000e+00
 0.000000000000000000e+00
 0.000000000000000000e+00
 0.000000000000000000e+00
 0.000000000000000000e+00
 0.000000000000000000e+00
 0.000000000000000000e+00
 0.000000000000000000e+00
 0.000000000000000000e+00
 0.000000000000000000e+00
 0.000000000000000000e+00
 0.000000000000000000e+00
 0.000000000000000000e+00
 0.000000000000000000e+00
 0.000000000000000000e+00
 0.000000000000000000e+00
 0.000000000000000000e+00
 0.000000000000000000e+00
 </DataArray>
 <DataArray Name="volume" type="Float32" NumberOfComponents="1" format="ascii">
 2.232650250000002990e-03
 2.135430750000007205e-03
 2.038211250000004915e-03
 1.940991749999995686e-03
 1.843772250000000335e-03
 1.746552750000004766e-03
 1.649333249999988815e-03
 1.552113750000000836e-03
 1.454894250000005268e-03
 1.357674750000002761e-03
 1.260455250000000688e-03
 1.163235750000005120e-03
 1.066016249999988952e-03
 9.687967500000041173e-04
 8.715772499999913103e-04
 7.743577499999924896e-04
 6.771382500000040772e-04
 5.799187500000051480e-04
 4.826992499999994968e-04
 3.854797499999989413e-04
 2.232650250000002990e-03
 2.135430749999996797e-03
 2.038211250000016624e-03
 1.940991749999991349e-03
 1.843772250000005322e-03
 1.746552750000004766e-03
 1.649333249999991417e-03
 1.552113749999991512e-03
 1.454894250000001148e-03
 1.357674750000006014e-03
 1.260455249999999604e-03
 1.163235749999997530e-03
 1.066016249999996541e-03
 9.687967500000057436e-04
 8.715772500000039955e-04
 7.743577499999894538e-04
 6.771382500000066793e-04
 5.799187499999996186e-04
 4.826992499999986836e-04
 3.854797499999994292e-04
 2.232650249999996485e-03
 2.135430750000014144e-03
 2.038211250000008818e-03
 1.940991750000001974e-03
 1.843772250000002937e-03
 1.746552749999998044e-03
 1.649333249999995754e-03
 1.552113749999999535e-03
 1.454894250000018062e-03
 1.357674749999999509e-03
 1.260455249999998736e-03
 1.163235750000001434e-03
 1.066016250000000444e-03
 9.687967500000023826e-04
 8.715772500000008513e-04
 7.743577499999916222e-04
 6.771382500000101487e-04
 5.799187499999922460e-04
 4.826992499999994968e-04
 3.854797500000015434e-04
 2.232650249999983474e-03
 2.135430750000021083e-03
 2.038211249999980195e-03
 1.940991750000008263e-03
 1.843772249999989926e-03
 1.746552749999998044e-03
 1.649333250000000091e-03
 1.552113750000001270e-03
 1.454894250000008521e-03
 1.357674749999997557e-03
 1.260455250000000688e-03
 1.163235749999999916e-03
 1.066016249999994156e-03
 9.687967500000023826e-04
 8.715772499999878409e-04
 7.743577499999994285e-04
 6.771382500000024509e-04
 5.799187499999966912e-04
 4.826992499999994968e-04
 3.854797499999989413e-04
 2.232650249999996919e-03
 2.135430750000007205e-03
 2.038211250000003180e-03
 1.940991750000006094e-03
 1.843772249999998600e-03
 1.746552749999998044e-03
 1.649333249999995754e-03
 1.552113749999995199e-03
 1.454894250000008521e-03
 1.357674749999994305e-03
 1.260455250000003941e-03
 1.163235749999998181e-03
 1.066016249999997625e-03
 9.687967500000057436e-04
 8.715772499999896840e-04
 7.743577500000082105e-04
 6.771382499999987646e-04
 5.799187500000051480e-04
 4.826992499999994968e-04
 3.854797500000024107e-04
 2.232650249999997786e-03
 2.135430750000007205e-03
 2.038211249999999711e-03
 1.940991750000009564e-03
 1.843772249999997299e-03
 1.746552749999999779e-03
 1.649333250000001392e-03
 1.552113749999993464e-03
 1.454894250000012207e-03
 1.357674749999990618e-03
 1.260455250000007410e-03
 1.163235750000001434e-03
 1.066016249999999360e-03
 9.687967500000041173e-04
 8.715772499999999839e-04
 7.743577500000028979e-04
 6.771382499999936688e-04
 5.799187499999948481e-04
 4.826992500000029662e-04
 3.854797499999972066e-04
 2.232650249999999087e-03
 2.135430750000014144e-03
 2.038211249999991471e-03
 1.940991750000013033e-03
 1.843772249999997299e-03
 1.746552750000004766e-03
 1.649333249999994019e-03
 1.552113749999993464e-03
 1.454894250000012207e-03
 1.357674750000001027e-03
 1.260455249999993749e-03
 1.163235750000001434e-03
 1.066016249999999360e-03
 9.687967500000041173e-04
 8.715772500000018271e-04
 7.743577499999890201e-04
 6.771382500000040772e-04
 5.799187500000017870e-04
 4.826992499999994968e-04
 3.854797500000006760e-04
 2.232650249999997786e-03
 2.135430750000000266e-03
 2.038211249999989302e-03
 1.940991749999995686e-03
 1.843772249999989926e-03
 1.746552750000001514e-03
 1.649333249999999224e-03
 1.552113749999993464e-03
 1.454894250000005268e-03
 1.357674749999985414e-03
 1.260455249999997002e-03
 1.163235750000001434e-03
 1.066016249999999360e-03
 9.687967500000041173e-04
 8.715772499999913103e-04