<VTKFile type="UnstructuredGrid" byte_order="BigEndian">
<UnstructuredGrid><Piece NumberOfPoints="231" NumberOfCells="200">
<Points>
 <DataArray type="Float32" NumberOfComponents="3" format="ascii">
 2.170000076293945312e+00 0.000000000000000000e+00 0.000000000000000000e+00
 2.186500072479248047e+00 0.000000000000000000e+00 0.000000000000000000e+00
 2.203000068664550781e+00 0.000000000000000000e+00 0.000000000000000000e+00
 2.219500064849853516e+00 0.000000000000000000e+00 0.000000000000000000e+00
 2.236000061035156250e+00 0.000000000000000000e+00 0.000000000000000000e+00
 2.252500057220458984e+00 0.000000000000000000e+00 0.000000000000000000e+00
 2.269000053405761719e+00 0.000000000000000000e+00 0.000000000000000000e+00
 2.285500049591064453e+00 0.000000000000000000e+00 0.000000000000000000e+00
 2.302000045776367188e+00 0.000000000000000000e+00 0.000000000000000000e+00
 2.318500041961669922e+00 0.000000000000000000e+00 0.000000000000000000e+00
 2.335000038146972656e+00 0.000000000000000000e+00 0.000000000000000000e+00
 2.351500034332275391e+00 0.000000000000000000e+00 0.000000000000000000e+00
 2.368000030517578125e+00 0.000000000000000000e+00 0.000000000000000000e+00
 2.384500026702880859e+00 0.000000000000000000e+00 0.000000000000000000e+00
 2.401000022888183594e+00 0.000000000000000000e+00 0.000000000000000000e+00
 2.417500019073486328e+00 0.000000000000000000e+00 0.000000000000000000e+00
 2.434000015258789062e+00 0.000000000000000000e+00 0.000000000000000000e+00
 2.450500011444091797e+00 0.000000000000000000e+00 0.000000000000000000e+00
 2.467000007629394531e+00 0.000000000000000000e+00 0.000000000000000000e+00
 2.483500003814697266e+00 0.000000000000000000e+00 0.000000000000000000e+00
 2.500000000000000000e+00 0.000000000000000000e+00 0.000000000000000000e+00
 2.170000076293945312e+00 5.700000096112489700e-03 0.000000000000000000e+00
 2.186500072479248047e+00 5.700000096112489700e-03 0.000000000000000000e+00
 2.203000068664550781e+00 5.700000096112489700e-03 0.000000000000000000e+00
 2.219500064849853516e+00 5.700000096112489700e-03 0.000000000000000000e+00
 2.236000061035156250e+00 5.700000096112489700e-03 0.000000000000000000e+00
 2.252500057220458984e+00 5.700000096112489700e-03 0.000000000000000000e+00
 2.269000053405761719e+00 5.700000096112489700e-03 0.000000000000000000e+00
 2.285500049591064453e+00 5.700000096112489700e-03 0.000000000000000000e+00
 2.302000045776367188e+00 5.700000096112489700e-03 0.000000000000000000e+00
 2.318500041961669922e+00 5.700000096112489700e-03 0.000000000000000000e+00
 2.335000038146972656e+00 5.700000096112489700e-03 0.000000000000000000e+00
 2.351500034332275391e+00 5.700000096112489700e-03 0.000000000000000000e+00
 2.368000030517578125e+00 5.700000096112489700e-03 0.000000000000000000e+00
 2.384500026702880859e+00 5.700000096112489700e-03 0.000000000000000000e+00
 2.401000022888183594e+00 5.700000096112489700e-03 0.000000000000000000e+00
 2.417500019073486328e+00 5.700000096112489700e-03 0.000000000000000000e+00
 2.434000015258789062e+00 5.700000096112489700e-03 0.000000000000000000e+00
 2.450500011444091797e+00 5.700000096112489700e-03 0.000000000000000000e+00
 2.467000007629394531e+00 5.700000096112489700e-03 0.000000000000000000e+00
 2.483500003814697266e+00 5.700000096112489700e-03 0.000000000000000000e+00
 2.500000000000000000e+00 5.700000096112489700e-03 0.000000000000000000e+00
 2.170000076293945312e+00 1.140000019222497940e-02 0.000000000000000000e+00
 2.186500072479248047e+00 1.140000019222497940e-02 0.000000000000000000e+00
 2.203000068664550781e+00 1.140000019222497940e-02 0.000000000000000000e+00
 2.219500064849853516e+00 1.140000019222497940e-02 0.000000000000000000e+00
 2.236000061035156250e+00 1.140000019222497940e-02 0.000000000000000000e+00
 2.252500057220458984e+00 1.140000019222497940e-02 0.000000000000000000e+00
 2.269000053405761719e+00 1.140000019222497940e-02 0.000000000000000000e+00
 2.285500049591064453e+00 1.140000019222497940e-02 0.000000000000000000e+00
 2.302000045776367188e+00 1.140000019222497940e-02 0.000000000000000000e+00
 2.318500041961669922e+00 1.140000019222497940e-02 0.000000000000000000e+00
 2.335000038146972656e+00 1.140000019222497940e-02 0.000000000000000000e+00
 2.351500034332275391e+00 1.140000019222497940e-02 0.000000000000000000e+00
 2.368000030517578125e+00 1.140000019222497940e-02 0.000000000000000000e+00
 2.384500026702880859e+00 1.140000019222497940e-02 0.000000000000000000e+00
 2.401000022888183594e+00 1.140000019222497940e-02 0.000000000000000000e+00
 2.417500019073486328e+00 1.140000019222497940e-02 0.000000000000000000e+00
 2.434000015258789062e+00 1.140000019222497940e-02 0.000000000000000000e+00
 2.450500011444091797e+00 1.140000019222497940e-02 0.000000000000000000e+00
 2.467000007629394531e+00 1.140000019222497940e-02 0.000000000000000000e+00
 2.483500003814697266e+00 1.140000019222497940e-02 0.000000000000000000e+00
 2.500000000000000000e+00 1.140000019222497940e-02 0.000000000000000000e+00
 2.170000076293945312e+00 1.710000075399875641e-02 0.000000000000000000e+00
 2.186500072479248047e+00 1.710000075399875641e-02 0.000000000000000000e+00
 2.203000068664550781e+00 1.710000075399875641e-02 0.000000000000000000e+00
 2.219500064849853516e+00 1.710000075399875641e-02 0.000000000000000000e+00
 2.236000061035156250e+00 1.710000075399875641e-02 0.000000000000000000e+00
 2.252500057220458984e+00 1.710000075399875641e-02 0.000000000000000000e+00
 2.269000053405761719e+00 1.710000075399875641e-02 0.000000000000000000e+00
 2.285500049591064453e+00 1.710000075399875641e-02 0.000000000000000000e+00
 2.302000045776367188e+00 1.710000075399875641e-02 0.000000000000000000e+00
 2.318500041961669922e+00 1.710000075399875641e-02 0.000000000000000000e+00
 2.335000038146972656e+00 1.710000075399875641e-02 0.000000000000000000e+00
 2.351500034332275391e+00 1.710000075399875641e-02 0.000000000000000000e+00
 2.368000030517578125e+00 1.710000075399875641e-02 0.000000000000000000e+00
 2.384500026702880859e+00 1.710000075399875641e-02 0.000000000000000000e+00
 2.401000022888183594e+00 1.710000075399875641e-02 0.000000000000000000e+00
 2.417500019073486328e+00 1.710000075399875641e-02 0.000000000000000000e+00
 2.434000015258789062e+00 1.710000075399875641e-02 0.000000000000000000e+00
 2.450500011444091797e+00 1.710000075399875641e-02 0.000000000000000000e+00
 2.467000007629394531e+00 1.710000075399875641e-02 0.000000000000000000e+00
 2.483500003814697266e+00 1.710000075399875641e-02 0.000000000000000000e+00
 2.500000000000000000e+00 1.710000075399875641e-02 0.000000000000000000e+00
 2.170000076293945312e+00 2.280000038444995880e-02 0.000000000000000000e+00
 2.186500072479248047e+00 2.280000038444995880e-02 0.000000000000000000e+00
 2.203000068664550781e+00 2.280000038444995880e-02 0.000000000000000000e+00
 2.219500064849853516e+00 2.280000038444995880e-02 0.000000000000000000e+00
 2.236000061035156250e+00 2.280000038444995880e-02 0.000000000000000000e+00
 2.252500057220458984e+00 2.280000038444995880e-02 0.000000000000000000e+00
 2.269000053405761719e+00 2.280000038444995880e-02 0.000000000000000000e+00
 2.285500049591064453e+00 2.280000038444995880e-02 0.000000000000000000e+00
 2.302000045776367188e+00 2.280000038444995880e-02 0.000000000000000000e+00
 2.318500041961669922e+00 2.280000038444995880e-02 0.000000000000000000e+00
 2.335000038146972656e+00 2.280000038444995880e-02 0.000000000000000000e+00
 2.351500034332275391e+00 2.280000038444995880e-02 0.000000000000000000e+00
 2.368000030517578125e+00 2.280000038444995880e-02 0.000000000000000000e+00
 2.384500026702880859e+00 2.280000038444995880e-02 0.000000000000000000e+00
 2.401000022888183594e+00 2.280000038444995880e-02 0.000000000000000000e+00
 2.417500019073486328e+00 2.280000038444995880e-02 0.000000000000000000e+00
 2.434000015258789062e+00 2.280000038444995880e-02 0.000000000000000000e+00
 2.450500011444091797e+00 2.280000038444995880e-02 0.000000000000000000e+00
 2.467000007629394531e+00 2.280000038444995880e-02 0.000000000000000000e+00
 2.483500003814697266e+00 2.280000038444995880e-02 0.000000000000000000e+00
 2.500000000000000000e+00 2.280000038444995880e-02 0.000000000000000000e+00
 2.170000076293945312e+00 2.850000001490116119e-02 0.000000000000000000e+00
 2.186500072479248047e+00 2.850000001490116119e-02 0.000000000000000000e+00
 2.203000068664550781e+00 2.850000001490116119e-02 0.000000000000000000e+00
 2.219500064849853516e+00 2.850000001490116119e-02 0.000000000000000000e+00
 2.236000061035156250e+00 2.850000001490116119e-02 0.000000000000000000e+00
 2.252500057220458984e+00 2.850000001490116119e-02 0.000000000000000000e+00
 2.269000053405761719e+00 2.850000001490116119e-02 0.000000000000000000e+00
 2.285500049591064453e+00 2.850000001490116119e-02 0.000000000000000000e+00
 2.302000045776367188e+00 2.850000001490116119e-02 0.000000000000000000e+00
 2.318500041961669922e+00 2.850000001490116119e-02 0.000000000000000000e+00
 2.335000038146972656e+00 2.850000001490116119e-02 0.000000000000000000e+00
 2.351500034332275391e+00 2.850000001490116119e-02 0.000000000000000000e+00
 2.368000030517578125e+00 2.850000001490116119e-02 0.000000000000000000e+00
 2.384500026702880859e+00 2.850000001490116119e-02 0.000000000000000000e+00
 2.401000022888183594e+00 2.850000001490116119e-02 0.000000000000000000e+00
 2.417500019073486328e+00 2.850000001490116119e-02 0.000000000000000000e+00
 2.434000015258789062e+00 2.850000001490116119e-02 0.000000000000000000e+00
 2.450500011444091797e+00 2.850000001490116119e-02 0.000000000000000000e+00
 2.467000007629394531e+00 2.850000001490116119e-02 0.000000000000000000e+00
 2.483500003814697266e+00 2.850000001490116119e-02 0.000000000000000000e+00
 2.500000000000000000e+00 2.850000001490116119e-02 0.000000000000000000e+00
 2.170000076293945312e+00 3.420000150799751282e-02 0.000000000000000000e+00
 2.186500072479248047e+00 3.420000150799751282e-02 0.000000000000000000e+00
[...]
<CellData>
 <DataArray Name="pos.x" type="Float32" NumberOfComponents="1" format="ascii">
 2.178249999999998465e+00
 2.194750000000014190e+00
 2.211249999999952642e+00
 2.227749999999925290e+00
 2.244250000000086676e+00
 2.260749999999935866e+00
 2.277249999999984009e+00
 2.293750000000033484e+00
 2.310249999999982151e+00
 2.326749999999989438e+00
 2.343249999999990063e+00
 2.359750000000035097e+00
 2.376250000000004636e+00
 2.392750000000007926e+00
 2.409249999999957481e+00
 2.425750000000010953e+00
 2.442249999999959620e+00
 2.458750000000038849e+00
 2.475250000000052797e+00
 2.491749999999977927e+00
 2.178249999999974040e+00
 2.194750000000069257e+00
 2.211249999999936211e+00
 2.227749999999947494e+00
 2.244250000000064471e+00
 2.260750000000019799e+00
 2.277249999999984009e+00
 2.293750000000082334e+00
 2.310249999999946624e+00
 2.326750000000025853e+00
 2.343249999999990063e+00
 2.359749999999976477e+00
 2.376250000000063256e+00
 2.392749999999983057e+00
 2.409250000000063174e+00
 2.425749999999939899e+00
 2.442249999999982712e+00
 2.458750000000038849e+00
 2.475249999999940886e+00
 2.491749999999986365e+00
 2.178249999999974040e+00
 2.194750000000017742e+00
 2.211250000000005933e+00
 2.227749999999982133e+00
 2.244250000000034717e+00
 2.260749999999997595e+00
 2.277249999999958252e+00
 2.293749999999990852e+00
 2.310250000000007020e+00
 2.326750000000032070e+00
 2.343249999999971855e+00
 2.359749999999975145e+00
 2.376250000000039719e+00
 2.392749999999958632e+00
 2.409250000000006775e+00
 2.425750000000015394e+00
 2.442250000000024901e+00
 2.458750000000019309e+00
 2.475250000000013717e+00
 2.491750000000066745e+00
 2.178249999999994468e+00
 2.194750000000015522e+00
 2.211250000000000604e+00
 2.227749999999930175e+00
 2.244250000000062251e+00
 2.260749999999960291e+00
 2.277250000000008434e+00
 2.293750000000033484e+00
 2.310249999999971049e+00
 2.326750000000000984e+00
 2.343249999999990063e+00
 2.359749999999966708e+00
 2.376250000000048157e+00
 2.392750000000007926e+00
 2.409249999999957481e+00
 2.425750000000055806e+00
 2.442249999999952070e+00
 2.458749999999980229e+00
 2.475249999999982631e+00
 2.491750000000017451e+00
 2.178249999999998465e+00
 2.194749999999974666e+00
 2.211250000000017479e+00
 2.227749999999915076e+00
 2.244250000000032053e+00
 2.260749999999986493e+00
 2.277250000000023089e+00
 2.293750000000033484e+00
 2.310249999999971049e+00
 2.326750000000000984e+00
 2.343249999999990063e+00
 2.359749999999997350e+00
 2.376249999999998419e+00
 2.392750000000007926e+00
 2.409249999999965031e+00
 2.425749999999958106e+00
 2.442249999999967169e+00
 2.458749999999952252e+00
 2.475250000000069228e+00
 2.491749999999992582e+00
 2.178250000000013564e+00
 2.194750000000040391e+00
 2.211249999999911786e+00
 2.227750000000042974e+00
 2.244250000000011180e+00
 2.260749999999960291e+00
 2.277250000000018204e+00
 2.293749999999981082e+00
 2.310250000000027892e+00
 2.326749999999968122e+00
 2.343250000000014932e+00
 2.359750000000024439e+00
 2.376250000000015294e+00
 2.392749999999963517e+00
 2.409250000000007663e+00
 2.425749999999960771e+00
 2.442250000000028898e+00
 2.458750000000031299e+00
 2.475249999999953321e+00
 2.491750000000017451e+00
 2.178250000000020226e+00
 2.194750000000036394e+00
 2.211249999999924665e+00
 2.227750000000024766e+00
 2.244249999999996081e+00
 2.260750000000002036e+00
 2.277250000000008434e+00
 2.293749999999990852e+00
 2.310250000000013237e+00
 2.326750000000000984e+00
 2.343249999999990063e+00
 2.359749999999991132e+00
 2.376250000000023732e+00
 2.392750000000007926e+00
 2.409249999999957481e+00
 2.425749999999986528e+00
 2.442250000000028898e+00
 2.458750000000026414e+00
 2.475250000000007056e+00
 2.491749999999965048e+00
 2.178250000000034881e+00
 2.194749999999931589e+00
 2.211250000000024141e+00
 2.227750000000015884e+00
 2.244249999999996081e+00
 2.260749999999992266e+00
 2.277250000000018204e+00
 2.293749999999990852e+00
 2.310250000000014126e+00
 2.326749999999999208e+00
 2.343249999999990063e+00
 2.359750000000009784e+00
 2.376249999999943352e+00
 2.392750000000005262e+00
 2.409249999999957481e+00
 2.425750000000031381e+00
 2.442249999999984045e+00
 2.458749999999961133e+00
 2.475250000000043471e+00
 2.491750000000066745e+00
 2.178249999999982922e+00
 2.194750000000040391e+00
 2.211249999999967297e+00
 2.227749999999930175e+00
 2.244250000000050260e+00
 2.260750000000011806e+00
 2.277250000000013319e+00
 2.293749999999990852e+00
 2.310249999999999027e+00
 2.326749999999997431e+00
 2.343250000000014932e+00
 2.359750000000016446e+00
 2.376249999999978879e+00
 2.392750000000007926e+00
 2.409250000000018321e+00
 2.425749999999974982e+00
 2.442250000000020016e+00
 2.458749999999972680e+00
 2.475250000000024375e+00
 2.491749999999937959e+00
 2.178250000000008235e+00
 2.194749999999987988e+00
 2.211249999999981952e+00
 2.227749999999966590e+00
 2.244250000000016509e+00
 2.260750000000011806e+00
 2.277250000000024865e+00
 2.293749999999964650e+00
 2.310249999999982151e+00
 2.326749999999989438e+00
 2.343249999999990063e+00
 2.359749999999966708e+00
 2.376250000000048157e+00
 2.392750000000005262e+00
 2.409249999999977465e+00
 2.425749999999969209e+00
 2.442250000000028898e+00
 2.458750000000017977e+00
 2.475249999999982631e+00
 2.491750000000020560e+00
 </DataArray>
 <DataArray Name="pos.y" type="Float32" NumberOfComponents="1" format="ascii">
 2.850000000000005741e-03
 2.850000000000053012e-03
 2.849999999999955000e-03
 2.849999999999902958e-03
 2.850000000000082068e-03
 2.849999999999977551e-03
 2.849999999999955434e-03
 2.850000000000085538e-03
 2.850000000000001837e-03
 2.849999999999977551e-03
 2.850000000000005741e-03
 2.850000000000032195e-03
 2.849999999999979720e-03
 2.850000000000005741e-03
 2.849999999999977985e-03
 2.850000000000005307e-03
 2.849999999999977985e-03
 2.849999999999980587e-03
 2.850000000000057349e-03
 2.849999999999976250e-03
 8.549999999999889286e-03
 8.550000000000250108e-03
 8.549999999999757447e-03
 8.549999999999865000e-03
 8.550000000000095718e-03
 8.550000000000192862e-03
 8.549999999999785202e-03
 8.550000000000208475e-03
 8.549999999999875408e-03
 8.550000000000066228e-03
 8.550000000000017655e-03
 8.549999999999821632e-03
 8.550000000000215414e-03
 8.549999999999889286e-03
 8.550000000000095718e-03
 8.549999999999925715e-03
 8.549999999999897959e-03
 8.550000000000298681e-03
 8.549999999999776529e-03
 8.550000000000057554e-03
 1.424999999999985827e-02
 1.425000000000012021e-02
 1.425000000000007684e-02
 1.424999999999996408e-02
 1.425000000000010286e-02
 1.425000000000016531e-02
 1.424999999999972990e-02
 1.424999999999993286e-02
 1.425000000000003174e-02
 1.425000000000017052e-02
 1.424999999999979061e-02
 1.424999999999980102e-02
 1.425000000000028501e-02
 1.424999999999987561e-02
 1.425000000000008898e-02
 1.425000000000014796e-02
 1.424999999999990684e-02
 1.424999999999987561e-02
 1.424999999999990163e-02
 1.425000000000028501e-02
 1.994999999999969367e-02
 1.995000000000045695e-02
 1.995000000000003368e-02
 1.994999999999921489e-02
 1.995000000000047777e-02
 1.994999999999980470e-02
 1.995000000000000592e-02
 1.995000000000022103e-02
 1.994999999999981510e-02
 1.994999999999999205e-02
 1.995000000000001633e-02
 1.994999999999984633e-02
 1.995000000000021756e-02
 1.995000000000001633e-02
 1.994999999999982204e-02
 1.995000000000038062e-02
 1.994999999999985674e-02
 1.994999999999978041e-02
 1.994999999999995388e-02
 1.995000000000025225e-02
 2.565000000000007552e-02
 2.564999999999974939e-02
 2.565000000000033573e-02
 2.564999999999926367e-02
 2.565000000000033226e-02
 2.565000000000005817e-02
 2.565000000000002001e-02
 2.565000000000030103e-02
 2.564999999999974939e-02
 2.565000000000008593e-02
 2.565000000000006511e-02
 2.564999999999971123e-02
 2.564999999999990898e-02
 2.565000000000006511e-02
 2.564999999999975633e-02
 2.564999999999969388e-02
 2.564999999999974592e-02
 2.564999999999971123e-02
 2.565000000000042593e-02
 2.565000000000007552e-02
 3.135000000000024573e-02
 3.135000000000098819e-02
 3.134999999999911469e-02
 3.135000000000059961e-02
 3.134999999999987103e-02
 3.134999999999985715e-02
 3.135000000000023185e-02
 3.134999999999981551e-02
 3.135000000000024573e-02
 3.134999999999972531e-02
 3.135000000000014858e-02
 3.135000000000016940e-02
 3.135000000000013470e-02
 3.134999999999957265e-02
 3.135000000000011389e-02
 3.134999999999987103e-02
 3.135000000000042614e-02
 3.134999999999964204e-02
 3.135000000000007225e-02
 3.135000000000014164e-02
 3.705000000000015226e-02
 3.705000000000070043e-02
 3.704999999999888938e-02
 3.705000000000035348e-02
 3.704999999999966653e-02
 3.705000000000037430e-02
 3.705000000000004817e-02
 3.704999999999972204e-02
 3.705000000000027716e-02
 3.705000000000009674e-02
 3.705000000000002736e-02
 3.704999999999966653e-02
 3.705000000000027716e-02
 3.704999999999997878e-02
 3.704999999999966653e-02
 3.705000000000002736e-02
 3.705000000000034655e-02
 3.704999999999999266e-02
 3.705000000000037430e-02
 3.704999999999972204e-02
 4.275000000000043349e-02
 4.274999999999925387e-02
 4.275000000000037104e-02
 4.275000000000009348e-02
 4.274999999999967021e-02
 4.275000000000027389e-02
 4.275000000000005185e-02
 4.274999999999967715e-02
 4.275000000000055839e-02
 4.274999999999981593e-02
 4.275000000000004491e-02
 4.274999999999989919e-02
 4.274999999999879591e-02
 4.274999999999997552e-02
 4.274999999999962164e-02
 4.275000000000080819e-02
 4.274999999999962164e-02
 4.274999999999948980e-02
 4.274999999999989225e-02
 4.275000000000062084e-02
 4.844999999999927143e-02
 4.845000000000145718e-02
 4.844999999999978491e-02
 4.844999999999888285e-02
 4.845000000000031226e-02
 4.845000000000063839e-02
 4.845000000000016654e-02
 4.844999999999990981e-02
 4.844999999999950041e-02
 4.845000000000037471e-02
 4.845000000000021512e-02
 4.845000000000049961e-02
 4.844999999999900775e-02
 4.845000000000027063e-02
 4.845000000000025675e-02
 4.844999999999949347e-02
 4.845000000000046492e-02
 4.844999999999977797e-02
 4.845000000000046492e-02
 4.844999999999955592e-02
 5.414999999999983021e-02
 5.414999999999995511e-02
 5.414999999999957347e-02
 5.414999999999916408e-02
 5.415000000000001062e-02
 5.415000000000055880e-02
 5.415000000000035757e-02
 5.414999999999911551e-02
 5.414999999999996899e-02
 5.414999999999947633e-02
 5.415000000000003838e-02
 5.414999999999947633e-02
 5.415000000000046859e-02
 5.414999999999983021e-02
 5.414999999999985797e-02
 5.415000000000016328e-02
 5.415000000000042002e-02
 5.415000000000055880e-02
 5.414999999999917102e-02
 5.415000000000042002e-02
 </DataArray>
 <DataArray Name="pos.z" type="Float32" NumberOfComponents="1" format="ascii">
 0.000000000000000000e+00
 0.000000000000000000e+00
 0.000000000000000000e+00
 0.000000000000000000e+00
 0.000000000000000000e+00
 0.000000000000000000e+00
 0.000000000000000000e+00
 0.000000000000000000e+00
 0.000000000000000000e+00
 0.000000000000000000e+00
 0.000000000000000000e+00
 0.000000000000000000e+00
 0.000000000000000000e+00
 0.000000000000000000e+00
 0.000000000000000000e+00
 0.000000000000000000e+00
 0.000000000000000000e+00
 0.000000000000000000e+00
 0.000000000000000000e+00
 0.000000000000000000e+00
 0.000000000000000000e+00
 0.000000000000000000e+00
 0.000000000000000000e+00
 0.000000000000000000e+00
 0.000000000000000000e+00
 0.000000000000000000e+00
 0.000000000000000000e+00
 0.000000000000000000e+00
 0.000000000000000000e+00
 0.000000000000000000e+00
 0.000000000000000000e+00
 0.000000000000000000e+00
 0.000000000000000000e+00
 0.000000000000000000e+00
 0.000000000000000000e+00
 0.000000000000000000e+00
 0.000000000000000000e+00
 0.000000000000000000e+00
 0.000000000000000000e+00
 0.000000000000000000e+00
 0.000000000000000000e+00
 0.000000000000000000e+00
 0.000000000000000000e+00
 0.000000000000000000e+00
 0.000000000000000000e+00
 0.000000000000000000e+00
 0.000000000000000000e+00
 0.000000000000000000e+00
 0.000000000000000000e+00
 0.000000000000000000e+00
 0.000000000000000000e+00
 0.000000000000000000e+00
 0.000000000000000000e+00
 0.000000000000000000e+00
 0.000000000000000000e+00
 0.000000000000000000e+00
 0.000000000000000000e+00
 0.000000000000000000e+00
 0.000000000000000000e+00
 0.000000000000000000e+00
 0.000000000000000000e+00
 0.000000000000000000e+00
 0.000000000000000000e+00
 0.000000000000000000e+00
 0.000000000000000000e+00
 0.000000000000000000e+00
 0.000000000000000000e+00
 0.000000000000000000e+00
 0.000000000000000000e+00
 0.000000000000000000e+00
 0.000000000000000000e+00
 0.000000000000000000e+00
 0.000000000000000000e+00
 0.000000000000000000e+00
 0.000000000000000000e+00
 0.000000000000000000e+00
 0.000000000000000000e+00
 0.000000000000000000e+00
 0.000000000000000000e+00
 0.000000000000000000e+00
 0.000000000000000000e+00
 0.000000000000000000e+00
 0.000000000000000000e+00
 0.000000000000000000e+00
 0.000000000000000000e+00
 0.000000000000000000e+00
 0.000000000000000000e+00
 0.000000000000000000e+00
 0.000000000000000000e+00
 0.000000000000000000e+00
 0.000000000000000000e+00
 0.000000000000000000e+00
 0.000000000000000000e+00
 0.000000000000000000e+00
 0.000000000000000000e+00
 0.000000000000000000e+00
 0.000000000000000000e+00
 0.000000000000000000e+00
 0.000000000000000000e+00
 0.000000000000000000e+00
 0.000000000000000000e+00
 0.000000000000000000e+00
 0.000000000000000000e+00
 0.000000000000000000e+00
 0.000000000000000000e+00
 0.000000000000000000e+00
 0.000000000000000000e+00
 0.000000000000000000e+00
 0.000000000000000000e+00
 0.000000000000000000e+00
 0.000000000000000000e+00
 0.000000000000000000e+00
 0.000000000000000000e+00
 0.000000000000000000e+00
 0.000000000000000000e+00
 0.000000000000000000e+00
 0.000000000000000000e+00
 0.000000000000000000e+00
 0.000000000000000000e+00
 0.000000000000000000e+00
 0.000000000000000000e+00
 0.000000000000000000e+00
 0.000000000000000000e+00
 0.000000000000000000e+00
 0.000000000000000000e+00
 0.000000000000000000e+00
 0.000000000000000000e+00
 0.000000000000000000e+00
 0.000000000000000000e+00
 0.000000000000000000e+00
 0.000000000000000000e+00
 0.000000000000000000e+00
 0.000000000000000000e+00
 0.000000000000000000e+00
 0.000000000000000000e+00
 0.000000000000000000e+00
 0.000000000000000000e+00
 0.000000000000000000e+00
 0.000000000000000000e+00
 0.000000000000000000e+00
 0.000000000000000000e+00
 0.000000000000000000e+00
 0.000000000000000000e+00
 0.000000000000000000e+00
 0.000000000000000000e+00
 0.000000000000000000e+00
 0.000000000000000000e+00
 0.000000000000000000e+00
 0.000000000000000000e+00
 0.000000000000000000e+00
 0.000000000000000000e+00
 0.000000000000000000e+00
 0.000000000000000000e+00
 0.000000000000000000e+00
 0.000000000000000000e+00
 0.000000000000000000e+00
 0.000000000000000000e+00
 0.000000000000000000e+00
 0.000000000000000000e+00
 0.000000000000000000e+00
 0.000000000000000000e+00
 0.000000000000000000e+00
 0.000000000000000000e+00
 0.000000000000000000e+00
 0.000000000000000000e+00
 0.000000000000000000e+00
 0.000000000000000000e+00
 0.000000000000000000e+00
 0.000000000000000000e+00
 0.000000000000000000e+00
 0.000000000000000000e+00
 0.000000000000000000e+00
 0.000000000000000000e+00
 0.000000000000000000e+00
 0.000000000000000000e+00
 0.000000000000000000e+00
 0.000000000000000000e+00
 0.000000000000000000e+00
 0.000000000000000000e+00
 0.000000000000000000e+00
 0.000000000000000000e+00
 0.000000000000000000e+00
 0.000000000000000000e+00
 0.000000000000000000e+00
 0.000000000000000000e+00
 0.000000000000000000e+00
 0.000000000000000000e+00
 0.000000000000000000e+00
 0.000000000000000000e+00
 0.000000000000000000e+00
 0.000000000000000000e+00
 0.000000000000000000e+00
 0.000000000000000000e+00
 0.000000000000000000e+00
 0.000000000000000000e+00
 0.000000000000000000e+00
 0.000000000000000000e+00
 0.000000000000000000e+00
 0.000000000000000000e+00
 0.000000000000000000e+00
 </DataArray>
 <DataArray Name="volume" type="Float32" NumberOfComponents="1" format="ascii">
 2.680424999999957379e-07
 2.680425000000150079e-07
 2.680424999999908675e-07
 2.680424999999910263e-07
 2.680425000000078081e-07
 2.680425000000029377e-07
 2.680424999999909204e-07
 2.680424999999933556e-07
 2.680425000000101904e-07
 2.680425000000029377e-07
 2.680424999999957379e-07
 2.680425000000030965e-07
 2.680425000000030965e-07
 2.680424999999957379e-07
 2.680425000000029906e-07
 2.680424999999957379e-07
 2.680425000000029906e-07
 2.680424999999933556e-07
 2.680425000000005554e-07
 2.680425000000077022e-07
 8.041274999999751964e-07
 8.041275000000520647e-07
 8.041274999999772081e-07
 8.041274999999778434e-07
 8.041275000000185010e-07
 8.041275000000204068e-07
 8.041274999999653497e-07
 8.041274999999753023e-07
 8.041275000000307830e-07
 8.041275000000090777e-07
 8.041274999999871608e-07
 8.041275000000212538e-07
 8.041274999999972193e-07
 8.041274999999751964e-07
 8.041275000000209362e-07
 8.041275000000113012e-07
 8.041274999999726553e-07
 8.041275000000134188e-07
 8.041275000000088660e-07
 8.041274999999944664e-07
 1.340212499999962225e-06
 1.340212500000031682e-06
 1.340212500000037611e-06
 1.340212499999958837e-06
 1.340212500000016647e-06
 1.340212500000034223e-06
 1.340212499999964343e-06
 1.340212499999945073e-06
 1.340212500000052646e-06
 1.340212500000016647e-06
 1.340212499999980860e-06
 1.340212500000033164e-06
 1.340212499999999495e-06
 1.340212499999963919e-06
 1.340212500000033588e-06
 1.340212500000014530e-06
 1.340212499999966884e-06
 1.340212500000051587e-06
 1.340212499999977895e-06
 1.340212500000002671e-06
 1.876297499999969689e-06
 1.876297500000020723e-06
 1.876297500000039569e-06
 1.876297499999920773e-06
 1.876297500000045710e-06
 1.876297500000016911e-06
 1.876297499999966724e-06
 1.876297499999917596e-06
 1.876297500000121943e-06
 1.876297499999965454e-06
 1.876297499999967360e-06
 1.876297500000021146e-06
 1.876297500000021146e-06
 1.876297499999967360e-06
 1.876297500000018817e-06
 1.876297499999967360e-06
 1.876297500000017758e-06
 1.876297500000017758e-06
 1.876297499999996159e-06
 1.876297499999989806e-06
 2.412382499999963600e-06
 2.412382500000093619e-06
 2.412382499999962753e-06
 2.412382499999927601e-06
 2.412382500000055503e-06
 2.412382500000027127e-06
 2.412382499999962329e-06
 2.412382499999895837e-06
 2.412382500000155876e-06
 2.412382499999964870e-06
 2.412382499999962329e-06
 2.412382500000025010e-06
 2.412382500000025010e-06
 2.412382499999962329e-06
 2.412382500000030092e-06
 2.412382499999965717e-06
 2.412382500000026704e-06
 2.412382500000062703e-06
 2.412382499999993670e-06
 2.412382499999963600e-06
 2.948467499999954335e-06
 2.948467500000159740e-06
 2.948467499999917912e-06
 2.948467499999953487e-06
 2.948467500000042002e-06
 2.948467500000041579e-06
 2.948467499999961958e-06
 2.948467499999884031e-06
 2.948467500000199974e-06
 2.948467499999958570e-06
 2.948467499999960687e-06
 2.948467500000040308e-06
 2.948467500000040732e-06
 2.948467499999961111e-06
 2.948467500000036497e-06
 2.948467499999958993e-06
 2.948467500000040732e-06
 2.948467500000116965e-06
 2.948467499999961111e-06
 2.948467499999960264e-06
 3.484552499999942528e-06
 3.484552500000174192e-06
 3.484552499999902294e-06
 3.484552499999947187e-06
 3.484552500000034431e-06
 3.484552500000036125e-06
 3.484552499999941681e-06
 3.484552499999846813e-06
 3.484552500000219931e-06
 3.484552499999946340e-06
 3.484552499999939563e-06
 3.484552500000034431e-06
 3.484552500000027231e-06
 3.484552499999934905e-06
 3.484552500000034431e-06
 3.484552499999939563e-06
 3.484552500000034008e-06
 3.484552500000129299e-06
 3.484552500000036125e-06
 3.484552499999846813e-06
 4.020637499999936651e-06
 4.020637500000146715e-06
 4.020637499999923098e-06
 4.020637499999935804e-06
 4.020637500000045071e-06
 4.020637500000030672e-06
 4.020637499999923945e-06
 4.020637499999823995e-06
 4.020637500000145868e-06
 4.020637500000034907e-06
 4.020637499999931569e-06
 4.020637499999991708e-06
 4.020637500000110293e-06
 4.020637499999935804e-06
 4.020637500000039989e-06