<VTKFile type="UnstructuredGrid" byte_order="BigEndian">
<UnstructuredGrid><Piece NumberOfPoints="231" NumberOfCells="200">
<Points>
 <DataArray type="Float32" NumberOfComponents="3" format="ascii">
 0.000000000000000000e+00 0.000000000000000000e+00 0.000000000000000000e+00
 4.940000176429748535e-02 0.000000000000000000e+00 0.000000000000000000e+00
 9.880000352859497070e-02 0.000000000000000000e+00 0.000000000000000000e+00
 1.482000052928924561e-01 0.000000000000000000e+00 0.000000000000000000e+00
 1.976000070571899414e-01 0.000000000000000000e+00 0.000000000000000000e+00
 2.469999939203262329e-01 0.000000000000000000e+00 0.000000000000000000e+00
 2.964000105857849121e-01 0.000000000000000000e+00 0.000000000000000000e+00
 3.458000123500823975e-01 0.000000000000000000e+00 0.000000000000000000e+00
 3.952000141143798828e-01 0.000000000000000000e+00 0.000000000000000000e+00
 4.445999860763549805e-01 0.000000000000000000e+00 0.000000000000000000e+00
 4.939999878406524658e-01 0.000000000000000000e+00 0.000000000000000000e+00
 5.433999896049499512e-01 0.000000000000000000e+00 0.000000000000000000e+00
 5.928000211715698242e-01 0.000000000000000000e+00 0.000000000000000000e+00
 6.421999931335449219e-01 0.000000000000000000e+00 0.000000000000000000e+00
 6.916000247001647949e-01 0.000000000000000000e+00 0.000000000000000000e+00
 7.409999966621398926e-01 0.000000000000000000e+00 0.000000000000000000e+00
 7.904000282287597656e-01 0.000000000000000000e+00 0.000000000000000000e+00
 8.398000001907348633e-01 0.000000000000000000e+00 0.000000000000000000e+00
 8.891999721527099609e-01 0.000000000000000000e+00 0.000000000000000000e+00
 9.386000037193298340e-01 0.000000000000000000e+00 0.000000000000000000e+00
 9.879999756813049316e-01 0.000000000000000000e+00 0.000000000000000000e+00
 0.000000000000000000e+00 5.409999936819076538e-02 0.000000000000000000e+00
 4.940000176429748535e-02 5.332500115036964417e-02 0.000000000000000000e+00
 9.880000352859497070e-02 5.254999920725822449e-02 0.000000000000000000e+00
 1.482000052928924561e-01 5.177500098943710327e-02 0.000000000000000000e+00
 1.976000070571899414e-01 5.099999904632568359e-02 0.000000000000000000e+00
 2.469999939203262329e-01 5.022500082850456238e-02 0.000000000000000000e+00
 2.964000105857849121e-01 4.944999888539314270e-02 0.000000000000000000e+00
 3.458000123500823975e-01 4.867500066757202148e-02 0.000000000000000000e+00
 3.952000141143798828e-01 4.789999872446060181e-02 0.000000000000000000e+00
 4.445999860763549805e-01 4.712500050663948059e-02 0.000000000000000000e+00
 4.939999878406524658e-01 4.634999856352806091e-02 0.000000000000000000e+00
 5.433999896049499512e-01 4.557500034570693970e-02 0.000000000000000000e+00
 5.928000211715698242e-01 4.479999840259552002e-02 0.000000000000000000e+00
 6.421999931335449219e-01 4.402500018477439880e-02 0.000000000000000000e+00
 6.916000247001647949e-01 4.324999824166297913e-02 0.000000000000000000e+00
 7.409999966621398926e-01 4.247500002384185791e-02 0.000000000000000000e+00
 7.904000282287597656e-01 4.170000180602073669e-02 0.000000000000000000e+00
 8.398000001907348633e-01 4.092499986290931702e-02 0.000000000000000000e+00
 8.891999721527099609e-01 4.015000164508819580e-02 0.000000000000000000e+00
 9.386000037193298340e-01 3.937499970197677612e-02 0.000000000000000000e+00
 9.879999756813049316e-01 3.860000148415565491e-02 0.000000000000000000e+00
 0.000000000000000000e+00 1.081999987363815308e-01 0.000000000000000000e+00
 4.940000176429748535e-02 1.066500023007392883e-01 0.000000000000000000e+00
 9.880000352859497070e-02 1.050999984145164490e-01 0.000000000000000000e+00
 1.482000052928924561e-01 1.035500019788742065e-01 0.000000000000000000e+00
 1.976000070571899414e-01 1.019999980926513672e-01 0.000000000000000000e+00
 2.469999939203262329e-01 1.004500016570091248e-01 0.000000000000000000e+00
 2.964000105857849121e-01 9.889999777078628540e-02 0.000000000000000000e+00
 3.458000123500823975e-01 9.735000133514404297e-02 0.000000000000000000e+00
 3.952000141143798828e-01 9.579999744892120361e-02 0.000000000000000000e+00
 4.445999860763549805e-01 9.425000101327896118e-02 0.000000000000000000e+00
 4.939999878406524658e-01 9.269999712705612183e-02 0.000000000000000000e+00
 5.433999896049499512e-01 9.115000069141387939e-02 0.000000000000000000e+00
 5.928000211715698242e-01 8.959999680519104004e-02 0.000000000000000000e+00
 6.421999931335449219e-01 8.805000036954879761e-02 0.000000000000000000e+00
 6.916000247001647949e-01 8.649999648332595825e-02 0.000000000000000000e+00
 7.409999966621398926e-01 8.495000004768371582e-02 0.000000000000000000e+00
 7.904000282287597656e-01 8.340000361204147339e-02 0.000000000000000000e+00
 8.398000001907348633e-01 8.184999972581863403e-02 0.000000000000000000e+00
 8.891999721527099609e-01 8.030000329017639160e-02 0.000000000000000000e+00
 9.386000037193298340e-01 7.874999940395355225e-02 0.000000000000000000e+00
 9.879999756813049316e-01 7.720000296831130981e-02 0.000000000000000000e+00
 0.000000000000000000e+00 1.623000055551528931e-01 0.000000000000000000e+00
 4.940000176429748535e-02 1.599750071763992310e-01 0.000000000000000000e+00
 9.880000352859497070e-02 1.576499938964843750e-01 0.000000000000000000e+00
 1.482000052928924561e-01 1.553249955177307129e-01 0.000000000000000000e+00
 1.976000070571899414e-01 1.529999971389770508e-01 0.000000000000000000e+00
 2.469999939203262329e-01 1.506749987602233887e-01 0.000000000000000000e+00
 2.964000105857849121e-01 1.483500003814697266e-01 0.000000000000000000e+00
 3.458000123500823975e-01 1.460250020027160645e-01 0.000000000000000000e+00
 3.952000141143798828e-01 1.437000036239624023e-01 0.000000000000000000e+00
 4.445999860763549805e-01 1.413750052452087402e-01 0.000000000000000000e+00
 4.939999878406524658e-01 1.390500068664550781e-01 0.000000000000000000e+00
 5.433999896049499512e-01 1.367249935865402222e-01 0.000000000000000000e+00
 5.928000211715698242e-01 1.343999952077865601e-01 0.000000000000000000e+00
 6.421999931335449219e-01 1.320749968290328979e-01 0.000000000000000000e+00
 6.916000247001647949e-01 1.297499984502792358e-01 0.000000000000000000e+00
 7.409999966621398926e-01 1.274250000715255737e-01 0.000000000000000000e+00
 7.904000282287597656e-01 1.251000016927719116e-01 0.000000000000000000e+00
 8.398000001907348633e-01 1.227750033140182495e-01 0.000000000000000000e+00
 8.891999721527099609e-01 1.204499974846839905e-01 0.000000000000000000e+00
 9.386000037193298340e-01 1.181249991059303284e-01 0.000000000000000000e+00
 9.879999756813049316e-01 1.158000007271766663e-01 0.000000000000000000e+00
 0.000000000000000000e+00 2.163999974727630615e-01 0.000000000000000000e+00
 4.940000176429748535e-02 2.133000046014785767e-01 0.000000000000000000e+00
 9.880000352859497070e-02 2.101999968290328979e-01 0.000000000000000000e+00
 1.482000052928924561e-01 2.071000039577484131e-01 0.000000000000000000e+00
 1.976000070571899414e-01 2.039999961853027344e-01 0.000000000000000000e+00
 2.469999939203262329e-01 2.009000033140182495e-01 0.000000000000000000e+00
 2.964000105857849121e-01 1.977999955415725708e-01 0.000000000000000000e+00
 3.458000123500823975e-01 1.947000026702880859e-01 0.000000000000000000e+00
 3.952000141143798828e-01 1.915999948978424072e-01 0.000000000000000000e+00
 4.445999860763549805e-01 1.885000020265579224e-01 0.000000000000000000e+00
 4.939999878406524658e-01 1.853999942541122437e-01 0.000000000000000000e+00
 5.433999896049499512e-01 1.823000013828277588e-01 0.000000000000000000e+00
 5.928000211715698242e-01 1.791999936103820801e-01 0.000000000000000000e+00
 6.421999931335449219e-01 1.761000007390975952e-01 0.000000000000000000e+00
 6.916000247001647949e-01 1.729999929666519165e-01 0.000000000000000000e+00
 7.409999966621398926e-01 1.699000000953674316e-01 0.000000000000000000e+00
 7.904000282287597656e-01 1.668000072240829468e-01 0.000000000000000000e+00
 8.398000001907348633e-01 1.636999994516372681e-01 0.000000000000000000e+00
 8.891999721527099609e-01 1.606000065803527832e-01 0.000000000000000000e+00
 9.386000037193298340e-01 1.574999988079071045e-01 0.000000000000000000e+00
 9.879999756813049316e-01 1.544000059366226196e-01 0.000000000000000000e+00
 0.000000000000000000e+00 2.705000042915344238e-01 0.000000000000000000e+00
 4.940000176429748535e-02 2.666249871253967285e-01 0.000000000000000000e+00
 9.880000352859497070e-02 2.627499997615814209e-01 0.000000000000000000e+00
 1.482000052928924561e-01 2.588750123977661133e-01 0.000000000000000000e+00
 1.976000070571899414e-01 2.549999952316284180e-01 0.000000000000000000e+00
 2.469999939203262329e-01 2.511250078678131104e-01 0.000000000000000000e+00
 2.964000105857849121e-01 2.472500056028366089e-01 0.000000000000000000e+00
 3.458000123500823975e-01 2.433750033378601074e-01 0.000000000000000000e+00
 3.952000141143798828e-01 2.395000010728836060e-01 0.000000000000000000e+00
 4.445999860763549805e-01 2.356249988079071045e-01 0.000000000000000000e+00
 4.939999878406524658e-01 2.317499965429306030e-01 0.000000000000000000e+00
 5.433999896049499512e-01 2.278749942779541016e-01 0.000000000000000000e+00
 5.928000211715698242e-01 2.240000069141387939e-01 0.000000000000000000e+00
 6.421999931335449219e-01 2.201250046491622925e-01 0.000000000000000000e+00
 6.916000247001647949e-01 2.162500023841857910e-01 0.000000000000000000e+00
 7.409999966621398926e-01 2.123750001192092896e-01 0.000000000000000000e+00
 7.904000282287597656e-01 2.084999978542327881e-01 0.000000000000000000e+00
 8.398000001907348633e-01 2.046249955892562866e-01 0.000000000000000000e+00
 8.891999721527099609e-01 2.007499933242797852e-01 0.000000000000000000e+00
 9.386000037193298340e-01 1.968750059604644775e-01 0.000000000000000000e+00
 9.879999756813049316e-01 1.930000036954879761e-01 0.000000000000000000e+00
 0.000000000000000000e+00 3.246000111103057861e-01 0.000000000000000000e+00
 4.940000176429748535e-02 3.199500143527984619e-01 0.000000000000000000e+00
[...]
<CellData>
 <DataArray Name="pos.x" type="Float32" NumberOfComponents="1" format="ascii">
 2.464060197036692032e-02
 7.403973238882327612e-02
 1.234388369678089542e-01
 1.728379145382308302e-01
 2.222369638593890695e-01
 2.716359836134101258e-01
 3.210349723991506310e-01
 3.704339287255161706e-01
 4.198328510041218209e-01
 4.692317375412320413e-01
 5.186305865288732830e-01
 5.680293960350382143e-01
 6.174281639928711485e-01
 6.668268881886739718e-01
 7.162255662486644026e-01
 7.656241956241944813e-01
 8.150227735753932112e-01
 8.644212971528402178e-01
 9.138197631772009277e-01
 9.632181682163107883e-01
 2.464060197036692032e-02
 7.403973238882327612e-02
 1.234388369678089542e-01
 1.728379145382308302e-01
 2.222369638593890417e-01
 2.716359836134105143e-01
 3.210349723991512416e-01
 3.704339287255154489e-01
 4.198328510041218209e-01
 4.692317375412313751e-01
 5.186305865288735051e-01
 5.680293960350391025e-01
 6.174281639928708154e-01
 6.668268881886754151e-01
 7.162255662486622931e-01
 7.656241956241955915e-01
 8.150227735753887703e-01
 8.644212971528419942e-01
 9.138197631771977081e-01
 9.632181682163086789e-01
 2.464060197036693073e-02
 7.403973238882333163e-02
 1.234388369678089126e-01
 1.728379145382308857e-01
 2.222369638593889862e-01
 2.716359836134103478e-01
 3.210349723991512416e-01
 3.704339287255148383e-01
 4.198328510041216544e-01
 4.692317375412324854e-01
 5.186305865288742822e-01
 5.680293960350383253e-01
 6.174281639928698162e-01
 6.668268881886750821e-01
 7.162255662486640695e-01
 7.656241956241937041e-01
 8.150227735753944325e-01
 8.644212971528448808e-01
 9.138197631771997065e-01
 9.632181682163083458e-01
 2.464060197036691338e-02
 7.403973238882327612e-02
 1.234388369678089542e-01
 1.728379145382308024e-01
 2.222369638593890695e-01
 2.716359836134102923e-01
 3.210349723991508530e-01
 3.704339287255148938e-01
 4.198328510041219319e-01
 4.692317375412326519e-01
 5.186305865288732830e-01
 5.680293960350382143e-01
 6.174281639928719256e-01
 6.668268881886741939e-01
 7.162255662486642915e-01
 7.656241956241947033e-01
 8.150227735753932112e-01
 8.644212971528416611e-01
 9.138197631772000396e-01
 9.632181682163069025e-01
 2.464060197036693073e-02
 7.403973238882330388e-02
 1.234388369678089542e-01
 1.728379145382308579e-01
 2.222369638593889862e-01
 2.716359836134105143e-01
 3.210349723991509641e-01
 3.704339287255156155e-01
 4.198328510041213768e-01
 4.692317375412322633e-01
 5.186305865288743933e-01
 5.680293960350389915e-01
 6.174281639928704823e-01
 6.668268881886754151e-01
 7.162255662486650687e-01
 7.656241956241954805e-01
 8.150227735753907687e-01
 8.644212971528404399e-01
 9.138197631772030372e-01
 9.632181682163066805e-01
 2.464060197036691338e-02
 7.403973238882327612e-02
 1.234388369678089542e-01
 1.728379145382307192e-01
 2.222369638593892083e-01
 2.716359836134100703e-01
 3.210349723991502979e-01
 3.704339287255155599e-01
 4.198328510041217654e-01
 4.692317375412320413e-01
 5.186305865288731720e-01
 5.680293960350398796e-01
 6.174281639928690391e-01
 6.668268881886746380e-01
 7.162255662486659569e-01
 7.656241956241940372e-01
 8.150227735753919900e-01
 8.644212971528389966e-01
 9.138197631772007057e-01
 9.632181682163092340e-01
 2.464060197036690644e-02
 7.403973238882331775e-02
 1.234388369678089820e-01
 1.728379145382306359e-01
 2.222369638593891805e-01
 2.716359836134103478e-01
 3.210349723991507420e-01
 3.704339287255160040e-01
 4.198328510041218209e-01
 4.692317375412322078e-01
 5.186305865288732830e-01
 5.680293960350387694e-01
 6.174281639928700383e-01
 6.668268881886747490e-01
 7.162255662486670671e-01
 7.656241956241965907e-01
 8.150227735753919900e-01
 8.644212971528415501e-01
 9.138197631771973750e-01
 9.632181682163122316e-01
 2.464060197036692032e-02
 7.403973238882331775e-02
 1.234388369678089820e-01
 1.728379145382308024e-01
 2.222369638593890695e-01
 2.716359836134104588e-01
 3.210349723991504090e-01
 3.704339287255151714e-01
 4.198328510041224870e-01
 4.692317375412322078e-01
 5.186305865288741712e-01
 5.680293960350386584e-01
 6.174281639928711485e-01
 6.668268881886731947e-01
 7.162255662486636254e-01
 7.656241956241927049e-01
 8.150227735753947655e-01
 8.644212971528413281e-01
 9.138197631771967089e-01
 9.632181682163065695e-01
 2.464060197036691338e-02
 7.403973238882327612e-02
 1.234388369678089542e-01
 1.728379145382308024e-01
 2.222369638593891805e-01
 2.716359836134102923e-01
 3.210349723991512416e-01
 3.704339287255150048e-01
 4.198328510041215988e-01
 4.692317375412322078e-01
 5.186305865288732830e-01
 5.680293960350385474e-01
 6.174281639928694831e-01
 6.668268881886753041e-01
 7.162255662486650687e-01
 7.656241956241942592e-01
 8.150227735753887703e-01
 8.644212971528389966e-01
 9.138197631772018159e-01
 9.632181682163087899e-01
 2.464060197036693767e-02
 7.403973238882327612e-02
 1.234388369678089542e-01
 1.728379145382306081e-01
 2.222369638593892083e-01
 2.716359836134105143e-01
 3.210349723991507420e-01
 3.704339287255156155e-01
 4.198328510041212103e-01
 4.692317375412319302e-01
 5.186305865288736161e-01
 5.680293960350385474e-01
 6.174281639928710375e-01
 6.668268881886739718e-01
 7.162255662486665120e-01
 7.656241956241902624e-01
 8.150227735753925451e-01
 8.644212971528419942e-01
 9.138197631771997065e-01
 9.632181682163074576e-01
 </DataArray>
 <DataArray Name="pos.y" type="Float32" NumberOfComponents="1" format="ascii">
 2.685671592583973102e-02
 2.646922274695001631e-02
 2.608172977074847340e-02
 2.569423700640557570e-02
 2.530674446365358335e-02
 2.491925215283005007e-02
 2.453176008492567728e-02
 2.414426827163692127e-02
 2.375677672542315585e-02
 2.336928545957029854e-02
 2.298179448826034518e-02
 2.259430382664822864e-02
 2.220681349094662943e-02
 2.181932349851998035e-02
 2.143183386798873380e-02
 2.104434461934459599e-02
 2.065685577407975343e-02
 2.026936735532944636e-02
 1.988187938803318011e-02
 1.949439189911300260e-02
 8.057014777751919654e-02
 7.940766824085007669e-02
 7.824518931224540286e-02
 7.708271101921675139e-02
 7.592023339096071188e-02
 7.475775645849015716e-02
 7.359528025477707347e-02
 7.243280481491073952e-02
 7.127033017626943634e-02
 7.010785637871082276e-02
 6.894538346478107371e-02
 6.778291147994469634e-02
 6.662044047283997850e-02
 6.545797049555998615e-02
 6.429550160396607650e-02
 6.313303385803388512e-02
 6.197056732223896192e-02
 6.080810206598825929e-02
 5.964563816409931135e-02
 5.848317569733891413e-02
 1.342835796291987627e-01
 1.323461137347501371e-01
 1.304086488537422595e-01
 1.284711850320280069e-01
 1.265337223182678716e-01
 1.245962607641501879e-01
 1.226588004246285807e-01
 1.207213413581842698e-01
 1.187838836271156995e-01
 1.168464272978516072e-01
 1.149089724413021180e-01
 1.129715191332409385e-01
 1.110340674547330986e-01
 1.090966174925998566e-01
 1.071591693399437384e-01
 1.052217230967230077e-01
 1.032842788703987741e-01
 1.013468367766474088e-01
 9.940939694016558137e-02
 9.747195949556484995e-02
 1.879970114808780790e-01
 1.852845592286501697e-01
 1.825721083952392132e-01
 1.798596590448390542e-01
 1.771472112455750869e-01
 1.744347650698102603e-01
 1.717223205944799769e-01
 1.690098779014579389e-01
 1.662974370779619626e-01
 1.635849982169922390e-01
 1.608725614178224683e-01
 1.581601267865374305e-01
 1.554476944366267599e-01
 1.527352644896397271e-01
 1.500228370759210117e-01
 1.473104123354120609e-01
 1.445979904185580867e-01
 1.418855714873058227e-01
 1.391731557162321220e-01
 1.364607432937905152e-01
 2.417104433325575619e-01
 2.382230047225502578e-01
 2.347355679367363335e-01
 2.312481330576504901e-01
 2.277607001728821357e-01
 2.242732693754703743e-01
 2.207858407643314980e-01
 2.172984144447319965e-01
 2.138109905288081425e-01
 2.103235691361326765e-01
 2.068361503943435542e-01
 2.033487344398339780e-01
 1.998613214185197828e-01
 1.963739114866799307e-01
 1.928865048118990622e-01
 1.893991015741014472e-01
 1.859117019667168025e-01
 1.824243061979647640e-01
 1.789369144922992039e-01
 1.754495270920162497e-01
 2.954238751842372390e-01
 2.911614502164502349e-01
 2.868990274782329819e-01
 2.826366070704612876e-01
 2.783741891001894619e-01
 2.741117736811302108e-01
 2.698493609341821586e-01
 2.655869509880054991e-01
 2.613245439796543779e-01
 2.570621400552736135e-01
 2.527997393708641960e-01
 2.485373420931304700e-01
 2.442749484004124449e-01
 2.400125584837197179e-01
 2.357501725478766685e-01
 2.314877908127906392e-01
 2.272254135148765730e-01
 2.229630409086230114e-01
 2.187006732683649535e-01
 2.144383108902424839e-01
 3.491373070359165554e-01
 3.440998957103503231e-01
 3.390624870197302410e-01
 3.340250810832720574e-01
 3.289876780274965107e-01
 3.239502779867905469e-01
 3.189128811040340405e-01
 3.138754875312799175e-01
 3.088380974305012239e-01
 3.038007109744139678e-01
 2.987633283473846713e-01
 2.937259497464267399e-01
 2.886885753823061340e-01
 2.836512054807595606e-01
 2.786138402838544970e-01
 2.735764800514802753e-01
 2.685391250630363991e-01
 2.635017756192830074e-01
 2.584644320444299814e-01
 2.534270946884696896e-01
 4.028507388875957052e-01
 3.970383412042504667e-01
 3.912259465612265563e-01
 3.854135550960835488e-01
 3.796011669548040035e-01
 3.737887822924503833e-01
 3.679764012738853673e-01
 3.621640240745528927e-01
 3.563516508813470707e-01
 3.505392818935545995e-01
 3.447269173239054796e-01
 3.389145573997234262e-01
 3.331022023642000729e-01
 3.272898524777994034e-01
 3.214775080198311596e-01
 3.156651692901683015e-01
 3.098528366111959476e-01
 3.040405103299410605e-01
 2.982281908204966192e-01
 2.924158784866934813e-01
 4.565641707392755766e-01
 4.499767866981504993e-01
 4.433894061027244260e-01
 4.368020291088952622e-01
 4.302146558821109967e-01
 4.236272865981103308e-01
 4.170399214437373603e-01
 4.104525606178267561e-01
 4.038652043321937501e-01
 3.972778528126954534e-01
 3.906905063004260104e-01
 3.841031650530193353e-01
 3.775158293460922909e-01
 3.709284994748403008e-01
 3.643411757558085995e-01
 3.577538585288577710e-01
 3.511665481593538862e-01
 3.445792450405996687e-01
 3.379919495965645337e-01
 3.314046622849199930e-01
 5.102776025909543378e-01
 5.029152321920505875e-01
 4.955528656442206858e-01
 4.881905031217061985e-01
 4.808281448094181565e-01
 4.734657909037707224e-01
 4.661034416135884095e-01
 4.587410971611011745e-01
 4.513787577830391529e-01
 4.440164237318351415e-01
 4.366540952769470407e-01
 4.292917727063157440e-01
 4.219294563279862853e-01
 4.145671464718788113e-01
 4.072048434917874271e-01
 3.998425477675456308e-01
 3.924802597075143229e-01
 3.851179797512594427e-01
 3.777557083726295062e-01
 3.703934460831460052e-01
 </DataArray>
 <DataArray Name="pos.z" type="Float32" NumberOfComponents="1" format="ascii">
 0.000000000000000000e+00
 0.000000000000000000e+00
 0.000000000000000000e+00
 0.000000000000000000e+00
 0.000000000000000000e+00
 0.000000000000000000e+00
 0.000000000000000000e+00
 0.000000000000000000e+00
 0.000000000000000000e+00
 0.000000000000000000e+00
 0.000000000000000000e+00
 0.000000000000000000e+00
 0.000000000000000000e+00
 0.000000000000000000e+00
 0.000000000000000000e+00
 0.000000000000000000e+00
 0.000000000000000000e+00
 0.000000000000000000e+00
 0.000000000000000000e+00
 0.000000000000000000e+00
 0.000000000000000000e+00
 0.000000000000000000e+00
 0.000000000000000000e+00
 0.000000000000000000e+00
 0.000000000000000000e+00
 0.000000000000000000e+00
 0.000000000000000000e+00
 0.000000000000000000e+00
 0.000000000000000000e+00
 0.000000000000000000e+00
 0.000000000000000000e+00
 0.000000000000000000e+00
 0.000000000000000000e+00
 0.000000000000000000e+00
 0.000000000000000000e+00
 0.000000000000000000e+00
 0.000000000000000000e+00
 0.000000000000000000e+00
 0.000000000000000000e+00
 0.000000000000000000e+00
 0.000000000000000000e+00
 0.000000000000000000e+00
 0.000000000000000000e+00
 0.000000000000000000e+00
 0.000000000000000000e+00
 0.000000000000000000e+00
 0.000000000000000000e+00
 0.000000000000000000e+00
 0.000000000000000000e+00
 0.000000000000000000e+00
 0.000000000000000000e+00
 0.000000000000000000e+00
 0.000000000000000000e+00
 0.000000000000000000e+00
 0.000000000000000000e+00
 0.000000000000000000e+00
 0.000000000000000000e+00
 0.000000000000000000e+00
 0.000000000000000000e+00
 0.000000000000000000e+00
 0.000000000000000000e+00
 0.000000000000000000e+00
 0.000000000000000000e+00
 0.000000000000000000e+00
 0.000000000000000000e+00
 0.000000000000000000e+00
 0.000000000000000000e+00
 0.000000000000000000e+00
 0.000000000000000000e+00
 0.000000000000000000e+00
 0.000000000000000000e+00
 0.000000000000000000e+00
 0.000000000000000000e+00
 0.000000000000000000e+00
 0.000000000000000000e+00
 0.000000000000000000e+00
 0.000000000000000000e+00
 0.000000000000000000e+00
 0.000000000000000000e+00
 0.000000000000000000e+00
 0.000000000000000000e+00
 0.000000000000000000e+00
 0.000000000000000000e+00
 0.000000000000000000e+00
 0.000000000000000000e+00
 0.000000000000000000e+00
 0.000000000000000000e+00
 0.000000000000000000e+00
 0.000000000000000000e+00
 0.000000000000000000e+00
 0.000000000000000000e+00
 0.000000000000000000e+00
 0.000000000000000000e+00
 0.000000000000000000e+00
 0.000000000000000000e+00
 0.000000000000000000e+00
 0.000000000000000000e+00
 0.000000000000000000e+00
 0.000000000000000000e+00
 0.000000000000000000e+00
 0.000000000000000000e+00
 0.000000000000000000e+00
 0.000000000000000000e+00
 0.000000000000000000e+00
 0.000000000000000000e+00
 0.000000000000000000e+00
 0.000000000000000000e+00
 0.000000000000000000e+00
 0.000000000000000000e+00
 0.000000000000000000e+00
 0.000000000000000000e+00
 0.000000000000000000e+00
 0.000000000000000000e+00
 0.000000000000000000e+00
 0.000000000000000000e+00
 0.000000000000000000e+00
 0.000000000000000000e+00
 0.000000000000000000e+00
 0.000000000000000000e+00
 0.000000000000000000e+00
 0.000000000000000000e+00
 0.000000000000000000e+00
 0.000000000000000000e+00
 0.000000000000000000e+00
 0.000000000000000000e+00
 0.000000000000000000e+00
 0.000000000000000000e+00
 0.000000000000000000e+00
 0.000000000000000000e+00
 0.000000000000000000e+00
 0.000000000000000000e+00
 0.000000000000000000e+00
 0.000000000000000000e+00
 0.000000000000000000e+00
 0.000000000000000000e+00
 0.000000000000000000e+00
 0.000000000000000000e+00
 0.000000000000000000e+00
 0.000000000000000000e+00
 0.000000000000000000e+00
 0.000000000000000000e+00
 0.000000000000000000e+00
 0.000000000000000000e+00
 0.000000000000000000e+00
 0.000000000000000000e+00
 0.000000000000000000e+00
 0.000000000000000000e+00
 0.000000000000000000e+00
 0.000000000000000000e+00
 0.000000000000000000e+00
 0.000000000000000000e+00
 0.000000000000000000e+00
 0.000000000000000000e+00
 0.000000000000000000e+00
 0.000000000000000000e+00
 0.000000000000000000e+00
 0.000000000000000000e+00
 0.000000000000000000e+00
 0.000000000000000000e+00
 0.000000000000000000e+00
 0.000000000000000000e+00
 0.000000000000000000e+00
 0.000000000000000000e+00
 0.000000000000000000e+00
 0.000000000000000000e+00
 0.000000000000000000e+00
 0.000000000000000000e+00
 0.000000000000000000e+00
 0.000000000000000000e+00
 0.000000000000000000e+00
 0.000000000000000000e+00
 0.000000000000000000e+00
 0.000000000000000000e+00
 0.000000000000000000e+00
 0.000000000000000000e+00
 0.000000000000000000e+00
 0.000000000000000000e+00
 0.000000000000000000e+00
 0.000000000000000000e+00
 0.000000000000000000e+00
 0.000000000000000000e+00
 0.000000000000000000e+00
 0.000000000000000000e+00
 0.000000000000000000e+00
 0.000000000000000000e+00
 0.000000000000000000e+00
 0.000000000000000000e+00
 0.000000000000000000e+00
 0.000000000000000000e+00
 0.000000000000000000e+00
 0.000000000000000000e+00
 0.000000000000000000e+00
 0.000000000000000000e+00
 0.000000000000000000e+00
 0.000000000000000000e+00
 0.000000000000000000e+00
 0.000000000000000000e+00
 0.000000000000000000e+00
 0.000000000000000000e+00
 0.000000000000000000e+00
 </DataArray>
 <DataArray Name="volume" type="Float32" NumberOfComponents="1" format="ascii">
 2.653397499999999784e-03
 2.615112500000000770e-03
 2.576827500000003490e-03
 2.538542499999996670e-03
 2.500257500000001992e-03
 2.461972500000006881e-03
 2.423687500000000494e-03
 2.385402499999991505e-03
 2.347117499999998996e-03
 2.308832499999999982e-03
 2.270547499999997498e-03
 2.232262500000015831e-03
 2.193977499999989061e-03
 2.155692500000010864e-03
 2.117407499999994502e-03
 2.079122499999995488e-03
 2.040837499999996474e-03
 2.002552499999997460e-03
 1.964267499999998879e-03
 1.925982499999992492e-03
 2.653397500000000651e-03
 2.615112500000000770e-03
 2.576827500000003057e-03
 2.538542499999995369e-03
 2.500257500000003293e-03
 2.461972500000003412e-03
 2.423687499999999193e-03
 2.385402499999994107e-03
 2.347117499999998129e-03
 2.308832500000002150e-03
 2.270547499999995330e-03
 2.232262500000013663e-03
 2.193977499999987327e-03
 2.155692500000012165e-03
 2.117407499999999273e-03
 2.079122499999995488e-03
 2.040837500000015556e-03
 2.002552499999988786e-03
 1.964267500000010155e-03
 1.925982499999989890e-03
 2.653397500000001519e-03
 2.615112500000000770e-03
 2.576827500000000021e-03
 2.538542499999995369e-03
 2.500257500000005895e-03
 2.461972500000004279e-03
 2.423687499999997025e-03
 2.385402500000002781e-03
 2.347117500000001165e-03
 2.308832500000000416e-03
 2.270547499999993162e-03
 2.232262500000011061e-03
 2.193977499999992965e-03
 2.155692500000009563e-03
 2.117407499999994069e-03
 2.079122500000002427e-03
 2.040837500000006015e-03
 2.002552499999984015e-03
 1.964267500000008420e-03
 1.925982499999992275e-03
 2.653397499999999784e-03
 2.615112500000000770e-03
 2.576827500000004358e-03
 2.538542499999999705e-03
 2.500257500000001992e-03
 2.461972500000001243e-03
 2.423687499999999193e-03
 2.385402499999999312e-03
 2.347117499999996394e-03
 2.308832499999998681e-03
 2.270547499999999233e-03
 2.232262500000008025e-03
 2.193977499999987327e-03
 2.155692500000014333e-03
 2.117407499999992768e-03
 2.079122500000002427e-03
 2.040837500000000811e-03
 2.002552499999994424e-03
 1.964267500000003216e-03
 1.925982499999995094e-03
 2.653397500000001519e-03
 2.615112500000002504e-03
 2.576827500000001755e-03
 2.538542499999996670e-03
 2.500257500000000691e-03
 2.461972500000001243e-03
 2.423687500000000494e-03
 2.385402499999996710e-03
 2.347117500000001598e-03
 2.308832500000001717e-03
 2.270547499999998799e-03
 2.232262500000006724e-03
 2.193977499999992965e-03
 2.155692500000006961e-03
 2.117407499999987130e-03
 2.079122500000002861e-03
 2.040837500000009918e-03
 2.002552499999995291e-03
 1.964267499999998012e-03
 1.925982499999999214e-03
 2.653397500000001519e-03
 2.615112500000000770e-03
 2.576827499999998286e-03
 2.538542499999998838e-03
 2.500257500000003727e-03
 2.461972500000006881e-03
 2.423687500000003096e-03
 2.385402500000000179e-03
 2.347117500000000731e-03
 2.308832500000004319e-03
 2.270547500000000534e-03
 2.232262500000004122e-03
 2.193977499999999470e-03
 2.155692500000009563e-03
 2.117407499999986696e-03
 2.079122500000004162e-03
 2.040837500000002979e-03
 2.002552499999997026e-03
 1.964267500000002348e-03
 1.925982499999996395e-03
 2.653397499999996315e-03
 2.615112499999999035e-03
 2.576827500000004791e-03
 2.538542499999997537e-03
 2.500257499999996354e-03
 2.461972500000003845e-03
 2.423687500000004831e-03
 2.385402499999996710e-03
 2.347117500000003333e-03
 2.308832500000000416e-03
 2.270547499999997932e-03
 2.232262500000003688e-03
 2.193977499999992097e-03
 2.155692500000010864e-03
 2.117407499999987997e-03
 2.079122499999996789e-03
 2.040837500000002979e-03
 2.002552499999998327e-03
 1.964267500000008854e-03
 1.925982499999986637e-03
 2.653397500000003253e-03
 2.615112500000000770e-03
 2.576827500000004791e-03
 2.538542500000005777e-03
 2.500257500000005462e-03
 2.461972500000000810e-03
 2.423687499999999193e-03
 2.385402499999993674e-03
 2.347117499999991190e-03
 2.308832499999995645e-03
 2.270547499999998799e-03
 2.232262500000008025e-03
 2.193977499999994699e-03
 2.155692500000017369e-03
 2.117407499999988865e-03