<VTKFile type="UnstructuredGrid" byte_order="BigEndian">
<UnstructuredGrid><Piece NumberOfPoints="861" NumberOfCells="800">
<Points>
 <DataArray type="Float32" NumberOfComponents="3" format="ascii">
 1.807000041007995605e+00 0.000000000000000000e+00 0.000000000000000000e+00
 1.811825037002563477e+00 0.000000000000000000e+00 0.000000000000000000e+00
 1.816650032997131348e+00 0.000000000000000000e+00 0.000000000000000000e+00
 1.821475028991699219e+00 0.000000000000000000e+00 0.000000000000000000e+00
 1.826300024986267090e+00 0.000000000000000000e+00 0.000000000000000000e+00
 1.831125020980834961e+00 0.000000000000000000e+00 0.000000000000000000e+00
 1.835950016975402832e+00 0.000000000000000000e+00 0.000000000000000000e+00
 1.840775012969970703e+00 0.000000000000000000e+00 0.000000000000000000e+00
 1.845600008964538574e+00 0.000000000000000000e+00 0.000000000000000000e+00
 1.850425004959106445e+00 0.000000000000000000e+00 0.000000000000000000e+00
 1.855250000953674316e+00 0.000000000000000000e+00 0.000000000000000000e+00
 1.860074996948242188e+00 0.000000000000000000e+00 0.000000000000000000e+00
 1.864899992942810059e+00 0.000000000000000000e+00 0.000000000000000000e+00
 1.869724988937377930e+00 0.000000000000000000e+00 0.000000000000000000e+00
 1.874549984931945801e+00 0.000000000000000000e+00 0.000000000000000000e+00
 1.879374980926513672e+00 0.000000000000000000e+00 0.000000000000000000e+00
 1.884199976921081543e+00 0.000000000000000000e+00 0.000000000000000000e+00
 1.889024972915649414e+00 0.000000000000000000e+00 0.000000000000000000e+00
 1.893849968910217285e+00 0.000000000000000000e+00 0.000000000000000000e+00
 1.898674964904785156e+00 0.000000000000000000e+00 0.000000000000000000e+00
 1.903499960899353027e+00 0.000000000000000000e+00 0.000000000000000000e+00
 1.908324956893920898e+00 0.000000000000000000e+00 0.000000000000000000e+00
 1.913149952888488770e+00 0.000000000000000000e+00 0.000000000000000000e+00
 1.917974948883056641e+00 0.000000000000000000e+00 0.000000000000000000e+00
 1.922799944877624512e+00 0.000000000000000000e+00 0.000000000000000000e+00
 1.927624940872192383e+00 0.000000000000000000e+00 0.000000000000000000e+00
 1.932450056076049805e+00 0.000000000000000000e+00 0.000000000000000000e+00
 1.937275052070617676e+00 0.000000000000000000e+00 0.000000000000000000e+00
 1.942100048065185547e+00 0.000000000000000000e+00 0.000000000000000000e+00
 1.946925044059753418e+00 0.000000000000000000e+00 0.000000000000000000e+00
 1.951750040054321289e+00 0.000000000000000000e+00 0.000000000000000000e+00
 1.956575036048889160e+00 0.000000000000000000e+00 0.000000000000000000e+00
 1.961400032043457031e+00 0.000000000000000000e+00 0.000000000000000000e+00
 1.966225028038024902e+00 0.000000000000000000e+00 0.000000000000000000e+00
 1.971050024032592773e+00 0.000000000000000000e+00 0.000000000000000000e+00
 1.975875020027160645e+00 0.000000000000000000e+00 0.000000000000000000e+00
 1.980700016021728516e+00 0.000000000000000000e+00 0.000000000000000000e+00
 1.985525012016296387e+00 0.000000000000000000e+00 0.000000000000000000e+00
 1.990350008010864258e+00 0.000000000000000000e+00 0.000000000000000000e+00
 1.995175004005432129e+00 0.000000000000000000e+00 0.000000000000000000e+00
 2.000000000000000000e+00 0.000000000000000000e+00 0.000000000000000000e+00
 1.807000041007995605e+00 2.249999903142452240e-03 0.000000000000000000e+00
 1.811825037002563477e+00 2.249999903142452240e-03 0.000000000000000000e+00
 1.816650032997131348e+00 2.249999903142452240e-03 0.000000000000000000e+00
 1.821475028991699219e+00 2.249999903142452240e-03 0.000000000000000000e+00
 1.826300024986267090e+00 2.249999903142452240e-03 0.000000000000000000e+00
 1.831125020980834961e+00 2.249999903142452240e-03 0.000000000000000000e+00
 1.835950016975402832e+00 2.249999903142452240e-03 0.000000000000000000e+00
 1.840775012969970703e+00 2.249999903142452240e-03 0.000000000000000000e+00
 1.845600008964538574e+00 2.249999903142452240e-03 0.000000000000000000e+00
 1.850425004959106445e+00 2.249999903142452240e-03 0.000000000000000000e+00
 1.855250000953674316e+00 2.249999903142452240e-03 0.000000000000000000e+00
 1.860074996948242188e+00 2.249999903142452240e-03 0.000000000000000000e+00
 1.864899992942810059e+00 2.249999903142452240e-03 0.000000000000000000e+00
 1.869724988937377930e+00 2.249999903142452240e-03 0.000000000000000000e+00
 1.874549984931945801e+00 2.249999903142452240e-03 0.000000000000000000e+00
 1.879374980926513672e+00 2.249999903142452240e-03 0.000000000000000000e+00
 1.884199976921081543e+00 2.249999903142452240e-03 0.000000000000000000e+00
 1.889024972915649414e+00 2.249999903142452240e-03 0.000000000000000000e+00
 1.893849968910217285e+00 2.249999903142452240e-03 0.000000000000000000e+00
 1.898674964904785156e+00 2.249999903142452240e-03 0.000000000000000000e+00
 1.903499960899353027e+00 2.249999903142452240e-03 0.000000000000000000e+00
 1.908324956893920898e+00 2.249999903142452240e-03 0.000000000000000000e+00
 1.913149952888488770e+00 2.249999903142452240e-03 0.000000000000000000e+00
 1.917974948883056641e+00 2.249999903142452240e-03 0.000000000000000000e+00
 1.922799944877624512e+00 2.249999903142452240e-03 0.000000000000000000e+00
 1.927624940872192383e+00 2.249999903142452240e-03 0.000000000000000000e+00
 1.932450056076049805e+00 2.249999903142452240e-03 0.000000000000000000e+00
 1.937275052070617676e+00 2.249999903142452240e-03 0.000000000000000000e+00
 1.942100048065185547e+00 2.249999903142452240e-03 0.000000000000000000e+00
 1.946925044059753418e+00 2.249999903142452240e-03 0.000000000000000000e+00
 1.951750040054321289e+00 2.249999903142452240e-03 0.000000000000000000e+00
 1.956575036048889160e+00 2.249999903142452240e-03 0.000000000000000000e+00
 1.961400032043457031e+00 2.249999903142452240e-03 0.000000000000000000e+00
 1.966225028038024902e+00 2.249999903142452240e-03 0.000000000000000000e+00
 1.971050024032592773e+00 2.249999903142452240e-03 0.000000000000000000e+00
 1.975875020027160645e+00 2.249999903142452240e-03 0.000000000000000000e+00
 1.980700016021728516e+00 2.249999903142452240e-03 0.000000000000000000e+00
 1.985525012016296387e+00 2.249999903142452240e-03 0.000000000000000000e+00
 1.990350008010864258e+00 2.249999903142452240e-03 0.000000000000000000e+00
 1.995175004005432129e+00 2.249999903142452240e-03 0.000000000000000000e+00
 2.000000000000000000e+00 2.249999903142452240e-03 0.000000000000000000e+00
 1.807000041007995605e+00 4.499999806284904480e-03 0.000000000000000000e+00
 1.811825037002563477e+00 4.499999806284904480e-03 0.000000000000000000e+00
 1.816650032997131348e+00 4.499999806284904480e-03 0.000000000000000000e+00
 1.821475028991699219e+00 4.499999806284904480e-03 0.000000000000000000e+00
 1.826300024986267090e+00 4.499999806284904480e-03 0.000000000000000000e+00
 1.831125020980834961e+00 4.499999806284904480e-03 0.000000000000000000e+00
 1.835950016975402832e+00 4.499999806284904480e-03 0.000000000000000000e+00
 1.840775012969970703e+00 4.499999806284904480e-03 0.000000000000000000e+00
 1.845600008964538574e+00 4.499999806284904480e-03 0.000000000000000000e+00
 1.850425004959106445e+00 4.499999806284904480e-03 0.000000000000000000e+00
 1.855250000953674316e+00 4.499999806284904480e-03 0.000000000000000000e+00
 1.860074996948242188e+00 4.499999806284904480e-03 0.000000000000000000e+00
 1.864899992942810059e+00 4.499999806284904480e-03 0.000000000000000000e+00
 1.869724988937377930e+00 4.499999806284904480e-03 0.000000000000000000e+00
 1.874549984931945801e+00 4.499999806284904480e-03 0.000000000000000000e+00
 1.879374980926513672e+00 4.499999806284904480e-03 0.000000000000000000e+00
 1.884199976921081543e+00 4.499999806284904480e-03 0.000000000000000000e+00
 1.889024972915649414e+00 4.499999806284904480e-03 0.000000000000000000e+00
 1.893849968910217285e+00 4.499999806284904480e-03 0.000000000000000000e+00
 1.898674964904785156e+00 4.499999806284904480e-03 0.000000000000000000e+00
 1.903499960899353027e+00 4.499999806284904480e-03 0.000000000000000000e+00
 1.908324956893920898e+00 4.499999806284904480e-03 0.000000000000000000e+00
 1.913149952888488770e+00 4.499999806284904480e-03 0.000000000000000000e+00
 1.917974948883056641e+00 4.499999806284904480e-03 0.000000000000000000e+00
 1.922799944877624512e+00 4.499999806284904480e-03 0.000000000000000000e+00
 1.927624940872192383e+00 4.499999806284904480e-03 0.000000000000000000e+00
 1.932450056076049805e+00 4.499999806284904480e-03 0.000000000000000000e+00
 1.937275052070617676e+00 4.499999806284904480e-03 0.000000000000000000e+00
 1.942100048065185547e+00 4.499999806284904480e-03 0.000000000000000000e+00
 1.946925044059753418e+00 4.499999806284904480e-03 0.000000000000000000e+00
 1.951750040054321289e+00 4.499999806284904480e-03 0.000000000000000000e+00
 1.956575036048889160e+00 4.499999806284904480e-03 0.000000000000000000e+00
 1.961400032043457031e+00 4.499999806284904480e-03 0.000000000000000000e+00
 1.966225028038024902e+00 4.499999806284904480e-03 0.000000000000000000e+00
 1.971050024032592773e+00 4.499999806284904480e-03 0.000000000000000000e+00
 1.975875020027160645e+00 4.499999806284904480e-03 0.000000000000000000e+00
 1.980700016021728516e+00 4.499999806284904480e-03 0.000000000000000000e+00
 1.985525012016296387e+00 4.499999806284904480e-03 0.000000000000000000e+00
 1.990350008010864258e+00 4.499999806284904480e-03 0.000000000000000000e+00
 1.995175004005432129e+00 4.499999806284904480e-03 0.000000000000000000e+00
 2.000000000000000000e+00 4.499999806284904480e-03 0.000000000000000000e+00
 1.807000041007995605e+00 6.750000175088644028e-03 0.000000000000000000e+00
 1.811825037002563477e+00 6.750000175088644028e-03 0.000000000000000000e+00
 1.816650032997131348e+00 6.750000175088644028e-03 0.000000000000000000e+00
 1.821475028991699219e+00 6.750000175088644028e-03 0.000000000000000000e+00
 1.826300024986267090e+00 6.750000175088644028e-03 0.000000000000000000e+00
[...]
<CellData>
 <DataArray Name="pos.x" type="Float32" NumberOfComponents="1" format="ascii">
 1.809412500000035173e+00
 1.814237500000025038e+00
 1.819062500000061755e+00
 1.823887500000010542e+00
 1.828712500000074570e+00
 1.833537500000021803e+00
 1.838362499999808275e+00
 1.843187500000034174e+00
 1.848012500000046909e+00
 1.852837499999953286e+00
 1.857662499999859662e+00
 1.862487500000085561e+00
 1.867312500000045228e+00
 1.872137499999951604e+00
 1.876962500000177503e+00
 1.881787499999773905e+00
 1.886612500000052650e+00
 1.891437500000100913e+00
 1.896262499999962658e+00
 1.901087500000082198e+00
 1.905912499999942833e+00
 1.910737500000047495e+00
 1.915562500000067558e+00
 1.920387499999873793e+00
 1.925212499999986893e+00
 1.930037500000153727e+00
 1.934862499999911334e+00
 1.939687499999918963e+00
 1.944512499999984989e+00
 1.949337500000157819e+00
 1.954162499999797742e+00
 1.958987500000076931e+00
 1.963812499999933125e+00
 1.968637500000100182e+00
 1.973462499999955932e+00
 1.978287499999865640e+00
 1.983112500000032030e+00
 1.987937499999994362e+00
 1.992762500000060610e+00
 1.997587499999913918e+00
 1.809412500000103785e+00
 1.814237500000023928e+00
 1.819062499999968496e+00
 1.823887499999957473e+00
 1.828712500000006624e+00
 1.833537499999850162e+00
 1.838362500000061628e+00
 1.843187499999885626e+00
 1.848012499999952762e+00
 1.852837500000144022e+00
 1.857662499999871208e+00
 1.862487499999994300e+00
 1.867312499999853381e+00
 1.872137500000170540e+00
 1.876962499999895062e+00
 1.881787500000048130e+00
 1.886612499999875014e+00
 1.891437500000074268e+00
 1.896262500000069906e+00
 1.901087500000001818e+00
 1.905912499999916410e+00
 1.910737500000047495e+00
 1.915562499999960977e+00
 1.920387499999873793e+00
 1.925212499999986893e+00
 1.930037500000132855e+00
 1.934862499999959295e+00
 1.939687499999967368e+00
 1.944512499999883071e+00
 1.949337500000237533e+00
 1.954162499999851033e+00
 1.958987500000076931e+00
 1.963812499999986194e+00
 1.968637499999996265e+00
 1.973462500000113362e+00
 1.978287499999918930e+00
 1.983112500000032030e+00
 1.987937499999994362e+00
 1.992762500000087478e+00
 1.997587499999967209e+00
 1.809412499999997204e+00
 1.814237499999999281e+00
 1.819062499999980043e+00
 1.823887499999798711e+00
 1.828712500000084562e+00
 1.833537499999971621e+00
 1.838362499999861344e+00
 1.843187500000073253e+00
 1.848012500000006053e+00
 1.852837499999996584e+00
 1.857662500000030192e+00
 1.862487499999924356e+00
 1.867312500000046560e+00
 1.872137499999994681e+00
 1.876962499999974998e+00
 1.881787500000064783e+00
 1.886612499999954728e+00
 1.891437499999949479e+00
 1.896262500000122975e+00
 1.901087499999975616e+00
 1.905912500000148668e+00
 1.910737500000054601e+00
 1.915562499999921231e+00
 1.920387500000020786e+00
 1.925212500000087257e+00
 1.930037500000111761e+00
 1.934862499999959295e+00
 1.939687500000020881e+00
 1.944512500000042277e+00
 1.949337499999997725e+00
 1.954162499999957614e+00
 1.958987499999970350e+00
 1.963812499999879835e+00
 1.968637500000049556e+00
 1.973462500000060293e+00
 1.978287499999812349e+00
 1.983112500000086653e+00
 1.987937499999993030e+00
 1.992762500000007320e+00
 1.997587499999913696e+00
 1.809412499999996093e+00
 1.814237500000014158e+00
 1.819062500000084182e+00
 1.823887499999892636e+00
 1.828712500000075902e+00
 1.833537500000010478e+00
 1.838362499999872224e+00
 1.843187500000022627e+00
 1.848012500000004721e+00
 1.852837499999941517e+00
 1.857662499999924499e+00
 1.862487500000032492e+00
 1.867312499999938646e+00
 1.872137499999951604e+00
 1.876962499999974332e+00
 1.881787500000030589e+00
 1.886612499999990256e+00
 1.891437499999852001e+00
 1.896262500000114093e+00
 1.901087500000036901e+00
 1.905912499999881993e+00
 1.910737499999894951e+00
 1.915562499999967860e+00
 1.920387500000020786e+00
 1.925212499999986893e+00
 1.930037499999999628e+00
 1.934862500000065877e+00
 1.939687499999918963e+00
 1.944512499999989652e+00
 1.949337499999997947e+00
 1.954162499999957614e+00
 1.958987500000023640e+00
 1.963812499999983308e+00
 1.968637500000100182e+00
 1.973462499999904862e+00
 1.978287500000075250e+00
 1.983112499999875045e+00
 1.987937500000205970e+00
 1.992762499999954251e+00
 1.997587499999966987e+00
 1.809412499999997204e+00
 1.814237499999911796e+00
 1.819062500000124150e+00
 1.823887500000050066e+00
 1.828712499999842089e+00
 1.833537500000055109e+00
 1.838362499999927735e+00
 1.843187500000220469e+00
 1.848012499999854397e+00
 1.852837500000041437e+00
 1.857662500000017980e+00
 1.862487499999894380e+00
 1.867312499999982611e+00
 1.872137500000108590e+00
 1.876962499999976774e+00
 1.881787500000082991e+00
 1.886612499999936965e+00
 1.891437500000004102e+00
 1.896262499999962658e+00
 1.901087499999982722e+00
 1.905912500000248366e+00
 1.910737500000054601e+00
 1.915562499999921231e+00
 1.920387500000020786e+00
 1.925212500000087257e+00
 1.930037499999892825e+00
 1.934862500000071206e+00
 1.939687499999972253e+00
 1.944512499999989652e+00
 1.949337500000206891e+00
 1.954162499999801739e+00
 1.958987500000023640e+00
 1.963812499999983086e+00
 1.968637500000153473e+00
 1.973462499999904640e+00
 1.978287500000021959e+00
 1.983112499999875045e+00
 1.987937500000153124e+00
 1.992762499999954695e+00
 1.997587500000073346e+00
 1.809412500000035173e+00
 1.814237499999971748e+00
 1.819062500000073745e+00
 1.823887499999906847e+00
 1.828712500000030161e+00
 1.833537500000012477e+00
 1.838362500000087385e+00
 1.843187499999906276e+00
 1.848012500000055347e+00
 1.852837500000059867e+00
 1.857662499999954697e+00
 1.862487500000096663e+00
 1.867312499999927988e+00
 1.872137500000015109e+00
 1.876962499999867973e+00
 1.881787500000074331e+00
 1.886612499999999359e+00
 1.891437500000054284e+00
 1.896262499999911366e+00
 1.901087500000082198e+00
 1.905912500000041865e+00
 1.910737499999788369e+00
 1.915562500000127732e+00
 1.920387499999867353e+00
 1.925212500000087257e+00
 1.930037499999946338e+00
 1.934862500000071206e+00
 1.939687499999972253e+00
 1.944512499999989652e+00
 1.949337500000100309e+00
 1.954162499999904323e+00
 1.958987499999970350e+00
 1.963812499999933125e+00
 1.968637500000153473e+00
 1.973462499999851572e+00
 1.978287500000126764e+00
 1.983112499999982958e+00
 1.987937500000100055e+00
 1.992762499999848114e+00
 1.997587500000073568e+00
 1.809412499999994095e+00
 1.814237500000003500e+00
 1.819062499999935190e+00
 1.823887500000145101e+00
 1.828712499999785024e+00
 1.833537500000201659e+00
 1.838362499999934396e+00
 1.843187500000115442e+00
 1.848012499999952762e+00
 1.852837500000048099e+00
 1.857662500000007988e+00
 1.862487499999894380e+00
 1.867312499999888242e+00
 1.872137500000215171e+00
 1.876962500000070921e+00
 1.881787499999924229e+00
 1.886612500000042436e+00
 1.891437500000004102e+00
 1.896262500000069240e+00
 1.901087499999975616e+00
 1.905912499999889542e+00
 1.910737500000154077e+00
 1.915562499999907686e+00
 1.920387499999980374e+00
 1.925212499999827021e+00
 1.930037500000153727e+00
 1.934862499999964625e+00
 1.939687499999918963e+00
 1.944512500000038280e+00
 1.949337499999846068e+00
 1.954162500000163227e+00
 1.958987499999917281e+00
 1.963812499999986194e+00
 1.968637499999942753e+00
 1.973462500000115805e+00
 1.978287499999967336e+00
 1.983112499999929668e+00
 1.987937500000047653e+00
 1.992762499999954473e+00
 1.997587500000020055e+00
 1.809412500000088464e+00
 1.814237500000063452e+00
 1.819062499999978932e+00
 1.823887499999948147e+00
 1.828712500000088337e+00
 1.833537500000052667e+00
 1.838362499999838251e+00
 1.843187500000172729e+00
 1.848012500000002056e+00
 1.852837500000051429e+00
 1.857662499999904737e+00
 1.862487499999902818e+00
 1.867312500000090081e+00
 1.872137500000098376e+00
 1.876962500000134204e+00
 1.881787500000074331e+00
 1.886612499999990256e+00
 1.891437499999903071e+00
 1.896262500000017948e+00
 1.901087500000028907e+00
 1.905912500000041865e+00
 1.910737500000001310e+00
 1.915562499999861279e+00
 1.920387500000287018e+00
 1.925212499999880311e+00
 1.930037500000047368e+00
 1.934862500000071206e+00
 1.939687499999972253e+00
 1.944512500000038280e+00
 1.949337499999948875e+00
 1.954162500000007130e+00
 1.958987499999863990e+00
 1.963812499999933125e+00
 1.968637499999996265e+00
 1.973462500000009001e+00
 1.978287500000128540e+00
 1.983112499999875045e+00
 1.987937500000099611e+00
 1.992762499999848114e+00
 1.997587500000073568e+00
 1.809412500000088464e+00
 1.814237500000049907e+00
 1.819062499999881899e+00
 1.823887499999957473e+00
 1.828712499999994856e+00
 1.833537499999995157e+00
 1.838362499999981026e+00
 1.843187499999932255e+00
 1.848012500000002056e+00
 1.852837500000141358e+00
 1.857662499999826133e+00
 1.862487500000043372e+00
 1.867312500000037456e+00
 1.872137499999999788e+00
 1.876962499999819345e+00
 1.881787500000021041e+00
 1.886612499999997139e+00
 1.891437499999951921e+00
 1.896262500000061024e+00
 1.901087499999989827e+00
 1.905912499999982357e+00
 1.910737499999948241e+00
 1.915562500000067558e+00
 1.920387499999920644e+00
 1.925212499999986893e+00
 1.930037500000152617e+00
 1.934862499999964625e+00
 1.939687499999972253e+00
 1.944512500000096011e+00
 1.949337499999994172e+00
 1.954162500000060421e+00
 1.958987499999814030e+00
 1.963812500000143180e+00
 1.968637499999942975e+00
 1.973462500000062070e+00
 1.978287499999917376e+00
 1.983112499999981626e+00
 1.987937500000100055e+00
 1.992762500000007320e+00
 1.997587499999967209e+00
 1.809412499999988100e+00
 1.814237500000029035e+00
 1.819062499999925642e+00
 1.823887500000137996e+00
 1.828712499999937346e+00
 1.833537499999995157e+00
 1.838362499999927735e+00
 1.843187500000124102e+00
 1.848012499999899472e+00
 1.852837500000051429e+00
 1.857662499999879202e+00
 1.862487500000082896e+00
 1.867312500000048114e+00
 1.872137500000045085e+00
 1.876962499999870193e+00
 1.881787500000127622e+00
 1.886612499999892778e+00
 1.891437500000003213e+00
 1.896262500000014173e+00
 1.901087500000036901e+00
 1.905912499999988574e+00
 1.910737500000047495e+00
 1.915562500000020041e+00
 1.920387499999922865e+00
 1.925212500000038629e+00
 1.930037500000048922e+00
 1.934862500000017249e+00
 1.939687499999919407e+00
 1.944512499999989430e+00
 1.949337499999997947e+00
 1.954162500000060421e+00
 1.958987499999970350e+00
 1.963812499999932903e+00
 1.968637500000047336e+00
 1.973462500000115361e+00
 1.978287499999917154e+00
 1.983112500000034695e+00
 1.987937500000046764e+00
 1.992762499999848114e+00
 1.997587500000073568e+00
 1.809412499999943913e+00
 1.814237500000116521e+00
 1.819062499999978932e+00
 1.823887500000040518e+00
 1.828712499999985974e+00
 1.833537499999857268e+00
 1.838362499999981026e+00
 1.843187500000217360e+00
 1.848012500000010716e+00
 1.852837500000113158e+00
 1.857662499999871208e+00
 1.862487500000127749e+00
 1.867312499999938646e+00
 1.872137499999845023e+00
 1.876962499999974332e+00
 1.881787500000127622e+00
 1.886612499999892778e+00
 1.891437499999955030e+00
 1.896262500000162277e+00
 1.901087499999930319e+00
 1.905912500000148224e+00
 1.910737499999894951e+00
 1.915562500000074442e+00
 1.920387499999920644e+00
 1.925212500000087257e+00
 1.930037499999952111e+00
 1.934862500000012586e+00
 1.939687499999918963e+00
 1.944512500000140420e+00
 1.949337499999948875e+00
 1.954162499999957614e+00
 1.958987499999917281e+00
 1.963812499999933125e+00
 1.968637500000153473e+00
 1.973462499999851572e+00
 1.978287500000075250e+00
 1.983112499999928335e+00
 1.987937500000100055e+00
 1.992762500000060610e+00
 1.997587499999913918e+00
 1.809412500000035173e+00
 1.814237500000015491e+00
 1.819062499999886784e+00
 1.823887500000147099e+00
 1.828712499999976870e+00
 1.833537499999915221e+00
 1.838362500000034316e+00
 1.843187500000173618e+00
 1.848012499999939440e+00
 1.852837500000003246e+00
 1.857662499999932493e+00
 1.862487500000119534e+00
 1.867312499999938646e+00
 1.872137500000004895e+00
 1.876962500000080913e+00
 1.881787500000127622e+00
 1.886612499999990256e+00
 1.891437499999852001e+00
 1.896262500000014173e+00
 1.901087500000030461e+00
 1.905912500000041865e+00
 1.910737499999788369e+00
 1.915562500000127732e+00
 1.920387499999867353e+00
 1.925212500000087257e+00
 1.930037499999999628e+00
 1.934862499999911334e+00
 1.939687499999972253e+00
 1.944512499999989652e+00
 1.949337500000100309e+00
 1.954162499999904989e+00
 1.958987500000073601e+00
 1.963812499999829209e+00
 1.968637500000153473e+00
 1.973462499999851572e+00
 1.978287500000075250e+00
 1.983112499999981626e+00
 1.987937500000100055e+00
 1.992762499999954029e+00
 1.997587499999967209e+00
 1.809412500000044277e+00
 1.814237500000141834e+00
 1.819062499999846816e+00
 1.823887500000147099e+00
 1.828712499999972874e+00
 1.833537499999995157e+00
 1.838362500000047639e+00
 1.843187499999865642e+00
 1.848012500000064007e+00
 1.852837499999838267e+00
 1.857662500000030859e+00
 1.862487500000032492e+00
 1.867312499999981279e+00
 1.872137500000004895e+00
 1.876962500000027623e+00
 1.881787500000074331e+00
 1.886612500000096837e+00
 1.891437499999905292e+00
 1.896262500000015949e+00
 1.901087500000188779e+00
 1.905912499999988574e+00
 1.910737499999841660e+00
 1.915562500000127732e+00
 1.920387499999967496e+00
 1.925212499999986893e+00
 1.930037499999994077e+00
 1.934862500000071206e+00
 1.939687499999972253e+00
 1.944512500000042721e+00
 1.949337499999944656e+00
 1.954162499999957614e+00
 1.958987500000073601e+00
 1.963812500000039485e+00
 1.968637499999996265e+00
 1.973462500000062292e+00
 1.978287500000075250e+00
 1.983112499999875045e+00
 1.987937499999994806e+00
 1.992762500000113235e+00
 1.997587499999967209e+00
 1.809412499999943913e+00
 1.814237500000160708e+00
 1.819062499999935190e+00
 1.823887500000035855e+00
 1.828712499999946894e+00
 1.833537499999901899e+00
 1.838362499999967481e+00
 1.843187499999937140e+00
 1.848012500000006053e+00
 1.852837499999990145e+00
 1.857662499999921168e+00
 1.862487500000187479e+00
 1.867312499999791431e+00
 1.872137500000103927e+00
 1.876962499999921041e+00
 1.881787500000021041e+00
 1.886612500000091730e+00
 1.891437499999861771e+00
 1.896262500000010842e+00
 1.901087500000036901e+00
 1.905912500000247256e+00
 1.910737499999894951e+00
 1.915562500000067558e+00
 1.920387499999927083e+00
 1.925212500000087257e+00
 1.930037499999994077e+00
 1.934862499999969510e+00
 1.939687500000127462e+00
 1.944512499999887067e+00
 1.949337500000047463e+00
 1.954162499999904323e+00
 1.958987499999916837e+00
 1.963812499999933125e+00
 1.968637500000153473e+00
 1.973462499999904862e+00
 1.978287499999917154e+00
 1.983112500000033362e+00
 1.987937500000046320e+00
 1.992762500000007098e+00
 1.997587499999913696e+00
 1.809412499999890622e+00
 1.814237499999971748e+00
 1.819062500000080407e+00
 1.823887499999978345e+00
 1.828712500000088337e+00
 1.833537500000056886e+00
 1.838362500000043198e+00
 1.843187500000070145e+00
 1.848012499999998726e+00
 1.852837500000001691e+00
 1.857662499999950034e+00
 1.862487500000101326e+00
 1.867312499999953301e+00
 1.872137499999989796e+00
 1.876962499999974332e+00
 1.881787499999967972e+00
 1.886612500000043546e+00
 1.891437499999857330e+00
 1.896262500000010842e+00
 1.901087500000234076e+00
 1.905912499999889542e+00
 1.910737499999788369e+00
 1.915562500000120849e+00
 1.920387499999927083e+00
 1.925212499999986893e+00
 1.930037499999940787e+00
 1.934862500000124275e+00
 1.939687500000127018e+00
 1.944512500000042721e+00
 1.949337499999944656e+00
 1.954162499999957614e+00
 1.958987499999970350e+00
 1.963812500000143180e+00
 1.968637499999889684e+00
 1.973462499999851572e+00
 1.978287500000181831e+00
 1.983112499999875045e+00
 1.987937500000153124e+00
 1.992762499999954029e+00
 1.997587499999967209e+00
 1.809412500000107560e+00
 1.814237499999895809e+00
 1.819062499999942739e+00
 1.823887500000080708e+00
 1.828712499999888941e+00
 1.833537500000173015e+00
 1.838362499999958821e+00
 1.843187499999985546e+00
 1.848012499999993841e+00
 1.852837499999899995e+00
 1.857662499999864547e+00
 1.862487500000129081e+00
 1.867312499999943531e+00
 1.872137500000010002e+00
 1.876962499999921041e+00
 1.881787500000122515e+00
 1.886612499999995363e+00
 1.891437499999953253e+00
 1.896262500000119422e+00
 1.901087499999978503e+00
 1.905912500000095156e+00
 1.910737499999945577e+00
 1.915562500000023149e+00
 1.920387499999918202e+00
 1.925212500000140547e+00
 1.930037499999889050e+00
 1.934862500000177565e+00
 1.939687499999922515e+00
 1.944512500000038280e+00
 1.949337499999998835e+00
 1.954162499999904323e+00
 1.958987500000126891e+00
 1.963812499999882055e+00
 1.968637499999940310e+00
 1.973462500000062292e+00
 1.978287500000075250e+00
 1.983112499999875267e+00
 1.987937499999941071e+00
 1.992762500000060610e+00
 1.997587500000073568e+00
 1.809412500000050494e+00
 1.814237499999983738e+00
 1.819062499999938964e+00
 1.823887500000195727e+00
 1.828712500000008623e+00
 1.833537499999888576e+00
 1.838362499999967925e+00
 1.843187500000097012e+00
 1.848012499999952762e+00
 1.852837499999985260e+00
 1.857662500000012873e+00
 1.862487500000096663e+00
 1.867312499999933761e+00
 1.872137499999961374e+00
 1.876962500000017853e+00
 1.881787499999924229e+00
 1.886612499999995363e+00
 1.891437500000008320e+00
 1.896262499999957551e+00
 1.901087499999983610e+00
 1.905912500000189302e+00
 1.910737499999788369e+00
 1.915562499999974522e+00
 1.920387500000020786e+00
 1.925212499999986893e+00
 1.930037499999950557e+00
 1.934862500000167129e+00
 1.939687499999865672e+00
 1.944512500000038280e+00
 1.949337499999998835e+00
 1.954162499999957614e+00
 1.958987500000023640e+00
 1.963812500000038819e+00
 1.968637500000047558e+00
 1.973462499999957931e+00
 1.978287500000021737e+00
 1.983112499999928335e+00
 1.987937500000046542e+00
 1.992762499999901404e+00
 1.997587500000073790e+00
 1.809412500000088464e+00
 1.814237500000025038e+00
 1.819062500000080407e+00
 1.823887500000005213e+00
 1.828712500000150065e+00
 1.833537499999994935e+00
 1.838362500000012112e+00
 1.843187500000079471e+00
 1.848012499999947877e+00
 1.852837500000048099e+00
 1.857662500000035077e+00
 1.862487499999967877e+00
 1.867312499999938646e+00
 1.872137499999989796e+00
 1.876962499999984102e+00
 1.881787500000074331e+00
 1.886612499999985149e+00
 1.891437499999852001e+00
 1.896262499999967988e+00
 1.901087499999983610e+00
 1.905912500000036980e+00
 1.910737500000047495e+00
 1.915562499999914570e+00
 1.920387500000027226e+00
 1.925212500000091920e+00
 1.930037500000052919e+00
 1.934862500000062102e+00
 1.939687499999922515e+00
 1.944512499999986099e+00
 1.949337500000103640e+00
 1.954162499999957614e+00
 1.958987500000074267e+00
 1.963812499999933125e+00
 1.968637499999889684e+00
 1.973462499999957931e+00
 1.978287500000021959e+00
 1.983112499999928113e+00
 1.987937500000100055e+00
 1.992762500000113901e+00
 1.997587499999967653e+00
 1.809412499999833557e+00
 1.814237500000139169e+00
 1.819062499999920535e+00
 1.823887499999988338e+00
 1.828712499999839869e+00
 1.833537499999981835e+00
 1.838362499999985245e+00
 1.843187500000062151e+00
 1.848012500000107527e+00
 1.852837500000154680e+00
 1.857662499999864547e+00
 1.862487500000101326e+00
 1.867312499999836950e+00
 1.872137500000106147e+00
 1.876962499999969225e+00
 1.881787500000021041e+00
 1.886612499999999359e+00
 1.891437500000003213e+00
 1.896262499999919360e+00
 1.901087500000031794e+00
 1.905912500000092269e+00
 1.910737499999943578e+00
 1.915562500000120849e+00
 1.920387499999976155e+00
 1.925212499999989335e+00
 1.930037500000102213e+00
 1.934862499999964625e+00
 1.939687499999972253e+00
 1.944512500000091570e+00
 1.949337499999997947e+00
 1.954162499999956948e+00
 1.958987499999971238e+00
 1.963812500000142736e+00
 1.968637499999890128e+00
 1.973462500000011222e+00
 1.978287499999915156e+00
 1.983112499999928335e+00
 1.987937500000206414e+00
 1.992762499999794823e+00
 1.997587500000073790e+00
 1.809412500000145529e+00
 1.814237500000002168e+00
 1.819062500000031113e+00
 1.823887499999860662e+00
 1.828712500000074570e+00