<VTKFile type="UnstructuredGrid" byte_order="BigEndian">
<UnstructuredGrid><Piece NumberOfPoints="861" NumberOfCells="800">
<Points>
 <DataArray type="Float32" NumberOfComponents="3" format="ascii">
 0.000000000000000000e+00 0.000000000000000000e+00 0.000000000000000000e+00
 2.470000088214874268e-02 0.000000000000000000e+00 0.000000000000000000e+00
 4.940000176429748535e-02 0.000000000000000000e+00 0.000000000000000000e+00
 7.410000264644622803e-02 0.000000000000000000e+00 0.000000000000000000e+00
 9.880000352859497070e-02 0.000000000000000000e+00 0.000000000000000000e+00
 1.234999969601631165e-01 0.000000000000000000e+00 0.000000000000000000e+00
 1.482000052928924561e-01 0.000000000000000000e+00 0.000000000000000000e+00
 1.729000061750411987e-01 0.000000000000000000e+00 0.000000000000000000e+00
 1.976000070571899414e-01 0.000000000000000000e+00 0.000000000000000000e+00
 2.222999930381774902e-01 0.000000000000000000e+00 0.000000000000000000e+00
 2.469999939203262329e-01 0.000000000000000000e+00 0.000000000000000000e+00
 2.716999948024749756e-01 0.000000000000000000e+00 0.000000000000000000e+00
 2.964000105857849121e-01 0.000000000000000000e+00 0.000000000000000000e+00
 3.210999965667724609e-01 0.000000000000000000e+00 0.000000000000000000e+00
 3.458000123500823975e-01 0.000000000000000000e+00 0.000000000000000000e+00
 3.704999983310699463e-01 0.000000000000000000e+00 0.000000000000000000e+00
 3.952000141143798828e-01 0.000000000000000000e+00 0.000000000000000000e+00
 4.199000000953674316e-01 0.000000000000000000e+00 0.000000000000000000e+00
 4.445999860763549805e-01 0.000000000000000000e+00 0.000000000000000000e+00
 4.693000018596649170e-01 0.000000000000000000e+00 0.000000000000000000e+00
 4.939999878406524658e-01 0.000000000000000000e+00 0.000000000000000000e+00
 5.187000036239624023e-01 0.000000000000000000e+00 0.000000000000000000e+00
 5.433999896049499512e-01 0.000000000000000000e+00 0.000000000000000000e+00
 5.680999755859375000e-01 0.000000000000000000e+00 0.000000000000000000e+00
 5.928000211715698242e-01 0.000000000000000000e+00 0.000000000000000000e+00
 6.175000071525573730e-01 0.000000000000000000e+00 0.000000000000000000e+00
 6.421999931335449219e-01 0.000000000000000000e+00 0.000000000000000000e+00
 6.668999791145324707e-01 0.000000000000000000e+00 0.000000000000000000e+00
 6.916000247001647949e-01 0.000000000000000000e+00 0.000000000000000000e+00
 7.163000106811523438e-01 0.000000000000000000e+00 0.000000000000000000e+00
 7.409999966621398926e-01 0.000000000000000000e+00 0.000000000000000000e+00
 7.656999826431274414e-01 0.000000000000000000e+00 0.000000000000000000e+00
 7.904000282287597656e-01 0.000000000000000000e+00 0.000000000000000000e+00
 8.151000142097473145e-01 0.000000000000000000e+00 0.000000000000000000e+00
 8.398000001907348633e-01 0.000000000000000000e+00 0.000000000000000000e+00
 8.644999861717224121e-01 0.000000000000000000e+00 0.000000000000000000e+00
 8.891999721527099609e-01 0.000000000000000000e+00 0.000000000000000000e+00
 9.139000177383422852e-01 0.000000000000000000e+00 0.000000000000000000e+00
 9.386000037193298340e-01 0.000000000000000000e+00 0.000000000000000000e+00
 9.632999897003173828e-01 0.000000000000000000e+00 0.000000000000000000e+00
 9.879999756813049316e-01 0.000000000000000000e+00 0.000000000000000000e+00
 0.000000000000000000e+00 2.270000055432319641e-02 0.000000000000000000e+00
 2.470000088214874268e-02 2.250625006854534149e-02 0.000000000000000000e+00
 4.940000176429748535e-02 2.231249958276748657e-02 0.000000000000000000e+00
 7.410000264644622803e-02 2.211874909698963165e-02 0.000000000000000000e+00
 9.880000352859497070e-02 2.192500047385692596e-02 0.000000000000000000e+00
 1.234999969601631165e-01 2.173124998807907104e-02 0.000000000000000000e+00
 1.482000052928924561e-01 2.153749950230121613e-02 0.000000000000000000e+00
 1.729000061750411987e-01 2.134375087916851044e-02 0.000000000000000000e+00
 1.976000070571899414e-01 2.115000039339065552e-02 0.000000000000000000e+00
 2.222999930381774902e-01 2.095624990761280060e-02 0.000000000000000000e+00
 2.469999939203262329e-01 2.076249942183494568e-02 0.000000000000000000e+00
 2.716999948024749756e-01 2.056875079870223999e-02 0.000000000000000000e+00
 2.964000105857849121e-01 2.037500031292438507e-02 0.000000000000000000e+00
 3.210999965667724609e-01 2.018124982714653015e-02 0.000000000000000000e+00
 3.458000123500823975e-01 1.998749934136867523e-02 0.000000000000000000e+00
 3.704999983310699463e-01 1.979375071823596954e-02 0.000000000000000000e+00
 3.952000141143798828e-01 1.960000023245811462e-02 0.000000000000000000e+00
 4.199000000953674316e-01 1.940624974668025970e-02 0.000000000000000000e+00
 4.445999860763549805e-01 1.921249926090240479e-02 0.000000000000000000e+00
 4.693000018596649170e-01 1.901875063776969910e-02 0.000000000000000000e+00
 4.939999878406524658e-01 1.882500015199184418e-02 0.000000000000000000e+00
 5.187000036239624023e-01 1.863124966621398926e-02 0.000000000000000000e+00
 5.433999896049499512e-01 1.843749918043613434e-02 0.000000000000000000e+00
 5.680999755859375000e-01 1.824375055730342865e-02 0.000000000000000000e+00
 5.928000211715698242e-01 1.805000007152557373e-02 0.000000000000000000e+00
 6.175000071525573730e-01 1.785624958574771881e-02 0.000000000000000000e+00
 6.421999931335449219e-01 1.766249909996986389e-02 0.000000000000000000e+00
 6.668999791145324707e-01 1.746875047683715820e-02 0.000000000000000000e+00
 6.916000247001647949e-01 1.727499999105930328e-02 0.000000000000000000e+00
 7.163000106811523438e-01 1.708124950528144836e-02 0.000000000000000000e+00
 7.409999966621398926e-01 1.688750088214874268e-02 0.000000000000000000e+00
 7.656999826431274414e-01 1.669375039637088776e-02 0.000000000000000000e+00
 7.904000282287597656e-01 1.649999991059303284e-02 0.000000000000000000e+00
 8.151000142097473145e-01 1.630624942481517792e-02 0.000000000000000000e+00
 8.398000001907348633e-01 1.611250080168247223e-02 0.000000000000000000e+00
 8.644999861717224121e-01 1.591875031590461731e-02 0.000000000000000000e+00
 8.891999721527099609e-01 1.572499983012676239e-02 0.000000000000000000e+00
 9.139000177383422852e-01 1.553125027567148209e-02 0.000000000000000000e+00
 9.386000037193298340e-01 1.533749978989362717e-02 0.000000000000000000e+00
 9.632999897003173828e-01 1.514375023543834686e-02 0.000000000000000000e+00
 9.879999756813049316e-01 1.494999974966049194e-02 0.000000000000000000e+00
 0.000000000000000000e+00 4.540000110864639282e-02 0.000000000000000000e+00
 2.470000088214874268e-02 4.501250013709068298e-02 0.000000000000000000e+00
 4.940000176429748535e-02 4.462499916553497314e-02 0.000000000000000000e+00
 7.410000264644622803e-02 4.423749819397926331e-02 0.000000000000000000e+00
 9.880000352859497070e-02 4.385000094771385193e-02 0.000000000000000000e+00
 1.234999969601631165e-01 4.346249997615814209e-02 0.000000000000000000e+00
 1.482000052928924561e-01 4.307499900460243225e-02 0.000000000000000000e+00
 1.729000061750411987e-01 4.268750175833702087e-02 0.000000000000000000e+00
 1.976000070571899414e-01 4.230000078678131104e-02 0.000000000000000000e+00
 2.222999930381774902e-01 4.191249981522560120e-02 0.000000000000000000e+00
 2.469999939203262329e-01 4.152499884366989136e-02 0.000000000000000000e+00
 2.716999948024749756e-01 4.113750159740447998e-02 0.000000000000000000e+00
 2.964000105857849121e-01 4.075000062584877014e-02 0.000000000000000000e+00
 3.210999965667724609e-01 4.036249965429306030e-02 0.000000000000000000e+00
 3.458000123500823975e-01 3.997499868273735046e-02 0.000000000000000000e+00
 3.704999983310699463e-01 3.958750143647193909e-02 0.000000000000000000e+00
 3.952000141143798828e-01 3.920000046491622925e-02 0.000000000000000000e+00
 4.199000000953674316e-01 3.881249949336051941e-02 0.000000000000000000e+00
 4.445999860763549805e-01 3.842499852180480957e-02 0.000000000000000000e+00
 4.693000018596649170e-01 3.803750127553939819e-02 0.000000000000000000e+00
 4.939999878406524658e-01 3.765000030398368835e-02 0.000000000000000000e+00
 5.187000036239624023e-01 3.726249933242797852e-02 0.000000000000000000e+00
 5.433999896049499512e-01 3.687499836087226868e-02 0.000000000000000000e+00
 5.680999755859375000e-01 3.648750111460685730e-02 0.000000000000000000e+00
 5.928000211715698242e-01 3.610000014305114746e-02 0.000000000000000000e+00
 6.175000071525573730e-01 3.571249917149543762e-02 0.000000000000000000e+00
 6.421999931335449219e-01 3.532499819993972778e-02 0.000000000000000000e+00
 6.668999791145324707e-01 3.493750095367431641e-02 0.000000000000000000e+00
 6.916000247001647949e-01 3.454999998211860657e-02 0.000000000000000000e+00
 7.163000106811523438e-01 3.416249901056289673e-02 0.000000000000000000e+00
 7.409999966621398926e-01 3.377500176429748535e-02 0.000000000000000000e+00
 7.656999826431274414e-01 3.338750079274177551e-02 0.000000000000000000e+00
 7.904000282287597656e-01 3.299999982118606567e-02 0.000000000000000000e+00
 8.151000142097473145e-01 3.261249884963035583e-02 0.000000000000000000e+00
 8.398000001907348633e-01 3.222500160336494446e-02 0.000000000000000000e+00
 8.644999861717224121e-01 3.183750063180923462e-02 0.000000000000000000e+00
 8.891999721527099609e-01 3.144999966025352478e-02 0.000000000000000000e+00
 9.139000177383422852e-01 3.106250055134296417e-02 0.000000000000000000e+00
 9.386000037193298340e-01 3.067499957978725433e-02 0.000000000000000000e+00
 9.632999897003173828e-01 3.028750047087669373e-02 0.000000000000000000e+00
 9.879999756813049316e-01 2.989999949932098389e-02 0.000000000000000000e+00
 0.000000000000000000e+00 6.809999793767929077e-02 0.000000000000000000e+00
 2.470000088214874268e-02 6.751874834299087524e-02 0.000000000000000000e+00
 4.940000176429748535e-02 6.693749874830245972e-02 0.000000000000000000e+00
 7.410000264644622803e-02 6.635624915361404419e-02 0.000000000000000000e+00
 9.880000352859497070e-02 6.577499955892562866e-02 0.000000000000000000e+00
[...]
<CellData>
 <DataArray Name="pos.x" type="Float32" NumberOfComponents="1" format="ascii">
 1.233235632978478200e-02
 3.703220378375865485e-02
 6.173204857692129316e-02
 8.643189063904267722e-02
 1.111317298973991535e-01
 1.358315662766622633e-01
 1.605313996987804415e-01
 1.852312300828555525e-01
 2.099310573450096917e-01
 2.346308813982525554e-01
 2.593307021523265643e-01
 2.840305195135602312e-01
 3.087303333847031261e-01
 3.334301436647464922e-01
 3.581299502487557684e-01
 3.828297530276577043e-01
 4.075295518880525103e-01
 4.322293467119817656e-01
 4.569291373767087050e-01
 4.816289237544743029e-01
 5.063287057122187740e-01
 5.310284831113369908e-01
 5.557282558073487477e-01
 5.804280236496195400e-01
 6.051277864809967433e-01
 6.298275441374864281e-01
 6.545272964478436872e-01
 6.792270432331913854e-01
 7.039267843065946106e-01
 7.286265194725508598e-01
 7.533262485265802555e-01
 7.780259712546291340e-01
 8.027256874325243707e-01
 8.274253968254033920e-01
 8.521250991869863123e-01
 8.768247942590051691e-01
 9.015244817703134128e-01
 9.262241614361859110e-01
 9.509238329574193349e-01
 9.756234960193841399e-01
 1.233235632978478200e-02
 3.703220378375864791e-02
 6.173204857692127928e-02
 8.643189063904270497e-02
 1.111317298973992646e-01
 1.358315662766623189e-01
 1.605313996987806080e-01
 1.852312300828553027e-01
 2.099310573450100803e-01
 2.346308813982525554e-01
 2.593307021523261202e-01
 2.840305195135594540e-01
 3.087303333847034037e-01
 3.334301436647477690e-01
 3.581299502487565456e-01
 3.828297530276584260e-01
 4.075295518880520662e-01
 4.322293467119828203e-01
 4.569291373767084830e-01
 4.816289237544752466e-01
 5.063287057122175527e-01
 5.310284831113354365e-01
 5.557282558073498580e-01
 5.804280236496189849e-01
 6.051277864809982976e-01
 6.298275441374882044e-01
 6.545272964478427991e-01
 6.792270432331956043e-01
 7.039267843065943886e-01
 7.286265194725511929e-01
 7.533262485265823649e-01
 7.780259712546276907e-01
 8.027256874325249258e-01
 8.274253968253995062e-01
 8.521250991869935287e-01
 8.768247942590001731e-01
 9.015244817703120805e-01
 9.262241614361897968e-01
 9.509238329574218884e-01
 9.756234960193821415e-01
 1.233235632978477679e-02
 3.703220378375866179e-02
 6.173204857692125153e-02
 8.643189063904260783e-02
 1.111317298973992368e-01
 1.358315662766620691e-01
 1.605313996987806635e-01
 1.852312300828554414e-01
 2.099310573450101913e-01
 2.346308813982522501e-01
 2.593307021523269529e-01
 2.840305195135588434e-01
 3.087303333847027376e-01
 3.334301436647473804e-01
 3.581299502487567121e-01
 3.828297530276569827e-01
 4.075295518880521772e-01
 4.322293467119822097e-01
 4.569291373767087050e-01
 4.816289237544754687e-01
 5.063287057122177748e-01
 5.310284831113388782e-01
 5.557282558073474155e-01
 5.804280236496176526e-01
 6.051277864809975204e-01
 6.298275441374869832e-01
 6.545272964478463518e-01
 6.792270432331896091e-01
 7.039267843065962760e-01
 7.286265194725550787e-01
 7.533262485265824759e-01
 7.780259712546272466e-01
 8.027256874325250369e-01
 8.274253968253999503e-01
 8.521250991869956382e-01
 8.768247942589983968e-01
 9.015244817703138569e-01
 9.262241614361897968e-01
 9.509238329574201121e-01
 9.756234960193873595e-01
 1.233235632978478546e-02
 3.703220378375865485e-02
 6.173204857692127928e-02
 8.643189063904258007e-02
 1.111317298973992090e-01
 1.358315662766623466e-01
 1.605313996987804137e-01
 1.852312300828551916e-01
 2.099310573450106632e-01
 2.346308813982519448e-01
 2.593307021523267863e-01
 2.840305195135603977e-01
 3.087303333847014608e-01
 3.334301436647474914e-01
 3.581299502487563791e-01
 3.828297530276585925e-01
 4.075295518880512891e-01
 4.322293467119800447e-01
 4.569291373767106479e-01
 4.816289237544732482e-01
 5.063287057122184409e-01
 5.310284831113394333e-01
 5.557282558073456391e-01
 5.804280236496212053e-01
 6.051277864809981866e-01
 6.298275441374849848e-01
 6.545272964478459077e-01
 6.792270432331926067e-01
 7.039267843065888375e-01
 7.286265194725537464e-01
 7.533262485265839192e-01
 7.780259712546281348e-01
 8.027256874325190417e-01
 8.274253968253977298e-01
 8.521250991869904201e-01
 8.768247942590010613e-01
 9.015244817703109703e-01
 9.262241614361951259e-01
 9.509238329574177806e-01
 9.756234960193843619e-01
 1.233235632978478546e-02
 3.703220378375865485e-02
 6.173204857692129316e-02
 8.643189063904260783e-02
 1.111317298973992507e-01
 1.358315662766623744e-01
 1.605313996987804970e-01
 1.852312300828556912e-01
 2.099310573450100526e-01
 2.346308813982519170e-01
 2.593307021523269529e-01
 2.840305195135592875e-01
 3.087303333847025155e-01
 3.334301436647467698e-01
 3.581299502487572672e-01
 3.828297530276585925e-01
 4.075295518880534540e-01
 4.322293467119811550e-01
 4.569291373767102593e-01
 4.816289237544735258e-01
 5.063287057122174417e-01
 5.310284831113376569e-01
 5.557282558073474155e-01
 5.804280236496196510e-01
 6.051277864809962992e-01
 6.298275441374864281e-01
 6.545272964478422439e-01
 6.792270432331953822e-01
 7.039267843065917241e-01
 7.286265194725584093e-01
 7.533262485265834751e-01
 7.780259712546283568e-01
 8.027256874325230385e-01
 8.274253968254045022e-01
 8.521250991869916414e-01
 8.768247942590038368e-01
 9.015244817703136349e-01
 9.262241614361833575e-01
 9.509238329574177806e-01
 9.756234960193850281e-01
 1.233235632978477506e-02
 3.703220378375864791e-02
 6.173204857692125846e-02
 8.643189063904259395e-02
 1.111317298973992229e-01
 1.358315662766624021e-01
 1.605313996987807190e-01
 1.852312300828546920e-01
 2.099310573450104411e-01
 2.346308813982522778e-01
 2.593307021523261202e-01
 2.840305195135607308e-01
 3.087303333847031261e-01
 3.334301436647473249e-01
 3.581299502487558239e-01
 3.828297530276576488e-01
 4.075295518880522327e-01
 4.322293467119802668e-01
 4.569291373767117026e-01
 4.816289237544725266e-01
 5.063287057122181078e-01
 5.310284831113359916e-01
 5.557282558073514123e-01
 5.804280236496180967e-01
 6.051277864809972984e-01
 6.298275441374864281e-01
 6.545272964478419109e-01
 6.792270432331989349e-01
 7.039267843065881713e-01
 7.286265194725568550e-01
 7.533262485265762587e-01
 7.780259712546301332e-01
 8.027256874325282565e-01
 8.274253968253978408e-01
 8.521250991869914193e-01
 8.768247942590002841e-01
 9.015244817703143010e-01
 9.262241614361919062e-01
 9.509238329574134507e-01
 9.756234960193775896e-01
 1.233235632978478026e-02
 3.703220378375865485e-02
 6.173204857692127928e-02
 8.643189063904262170e-02
 1.111317298973992646e-01
 1.358315662766624576e-01
 1.605313996987804970e-01
 1.852312300828554970e-01
 2.099310573450100803e-01
 2.346308813982521113e-01
 2.593307021523262867e-01
 2.840305195135602867e-01
 3.087303333847026821e-01
 3.334301436647474914e-01
 3.581299502487566011e-01
 3.828297530276572602e-01
 4.075295518880533985e-01
 4.322293467119789900e-01
 4.569291373767123132e-01
 4.816289237544716939e-01
 5.063287057122194401e-01
 5.310284831113351034e-01
 5.557282558073493028e-01
 5.804280236496193179e-01
 6.051277864809960771e-01
 6.298275441374883155e-01
 6.545272964478427991e-01
 6.792270432331956043e-01
 7.039267843065916130e-01
 7.286265194725560779e-01
 7.533262485265771469e-01
 7.780259712546284678e-01
 8.027256874325254810e-01
 8.274253968253997282e-01
 8.521250991869887548e-01
 8.768247942589940669e-01
 9.015244817703194080e-01
 9.262241614361924613e-01
 9.509238329574166704e-01
 9.756234960193869155e-01
 1.233235632978478546e-02
 3.703220378375864791e-02
 6.173204857692131398e-02
 8.643189063904260783e-02
 1.111317298973992646e-01
 1.358315662766624021e-01
 1.605313996987804970e-01
 1.852312300828555525e-01
 2.099310573450100526e-01
 2.346308813982521113e-01
 2.593307021523260647e-01
 2.840305195135604532e-01
 3.087303333847021269e-01
 3.334301436647483796e-01
 3.581299502487563235e-01
 3.828297530276587590e-01
 4.075295518880538426e-01
 4.322293467119801558e-01
 4.569291373767097042e-01
 4.816289237544736923e-01
 5.063287057122182189e-01
 5.310284831113354365e-01
 5.557282558073493028e-01
 5.804280236496217604e-01
 6.051277864809949669e-01
 6.298275441374879824e-01
 6.545272964478419109e-01
 6.792270432331944940e-01
 7.039267843065903918e-01
 7.286265194725572991e-01
 7.533262485265869168e-01
 7.780259712546293560e-01
 8.027256874325232605e-01
 8.274253968253996172e-01
 8.521250991869903091e-01
 8.768247942589999511e-01
 9.015244817703144120e-01
 9.262241614361856890e-01
 9.509238329574165594e-01
 9.756234960193839179e-01
 1.233235632978477506e-02
 3.703220378375866179e-02
 6.173204857692129316e-02
 8.643189063904262170e-02
 1.111317298973992090e-01
 1.358315662766623466e-01
 1.605313996987806635e-01
 1.852312300828554692e-01
 2.099310573450100248e-01
 2.346308813982519725e-01
 2.593307021523267863e-01
 2.840305195135599536e-01
 3.087303333847027376e-01
 3.334301436647476580e-01
 3.581299502487558795e-01
 3.828297530276593141e-01
 4.075295518880524548e-01
 4.322293467119808219e-01
 4.569291373767105924e-01
 4.816289237544739144e-01
 5.063287057122177748e-01
 5.310284831113396553e-01
 5.557282558073468604e-01
 5.804280236496176526e-01
 6.051277864809984086e-01
 6.298275441374838746e-01
 6.545272964478446864e-01
 6.792270432331966035e-01
 7.039267843065938335e-01
 7.286265194725535244e-01
 7.533262485265792563e-01
 7.780259712546305773e-01
 8.027256874325255920e-01
 8.274253968253992841e-01
 8.521250991869948610e-01
 8.768247942589970645e-01
 9.015244817703167435e-01
 9.262241614361949038e-01
 9.509238329574192239e-01
 9.756234960193839179e-01
 1.233235632978478546e-02
 3.703220378375865485e-02
 6.173204857692128622e-02
 8.643189063904255232e-02
 1.111317298973993062e-01
 1.358315662766622911e-01
 1.605313996987805247e-01
 1.852312300828554970e-01
 2.099310573450104966e-01
 2.346308813982521113e-01
 2.593307021523265088e-01
 2.840305195135601202e-01
 3.087303333847019604e-01
 3.334301436647482131e-01
 3.581299502487569897e-01
 3.828297530276595362e-01
 4.075295518880514001e-01
 4.322293467119834864e-01
 4.569291373767083164e-01
 4.816289237544743029e-01
 5.063287057122178858e-01
 5.310284831113381010e-01
 5.557282558073457501e-01
 5.804280236496180967e-01
 6.051277864809980755e-01
 6.298275441374875383e-01
 6.545272964478444644e-01
 6.792270432331930508e-01
 7.039267843065920571e-01
 7.286265194725599637e-01
 7.533262485265842523e-01
 7.780259712546272466e-01
 8.027256874325251479e-01
 8.274253968254005054e-01
 8.521250991869930846e-01
 8.768247942590027266e-01
 9.015244817703090829e-01
 9.262241614361844677e-01
 9.509238329574212223e-01
 9.756234960193873595e-01
 1.233235632978478373e-02
 3.703220378375864097e-02
 6.173204857692129316e-02
 8.643189063904266334e-02
 1.111317298973991952e-01
 1.358315662766623466e-01
 1.605313996987805247e-01
 1.852312300828553859e-01
 2.099310573450099970e-01
 2.346308813982521391e-01
 2.593307021523260647e-01
 2.840305195135606198e-01
 3.087303333847024045e-01
 3.334301436647474914e-01
 3.581299502487573783e-01
 3.828297530276586480e-01
 4.075295518880529544e-01
 4.322293467119809884e-01
 4.569291373767094822e-01
 4.816289237544722490e-01
 5.063287057122198842e-01
 5.310284831113368798e-01
 5.557282558073480816e-01
 5.804280236496176526e-01
 6.051277864809979645e-01
 6.298275441374864281e-01
 6.545272964478439093e-01
 6.792270432331929397e-01
 7.039267843065949437e-01
 7.286265194725504157e-01
 7.533262485265826980e-01
 7.780259712546292450e-01
 8.027256874325253699e-01
 8.274253968253978408e-01
 8.521250991869950830e-01
 8.768247942590031707e-01
 9.015244817703110813e-01
 9.262241614361885755e-01
 9.509238329574231097e-01
 9.756234960193849171e-01
 1.233235632978477679e-02
 3.703220378375866872e-02
 6.173204857692130010e-02
 8.643189063904264946e-02
 1.111317298973992368e-01
 1.358315662766622633e-01
 1.605313996987807745e-01
 1.852312300828552472e-01
 2.099310573450102191e-01
 2.346308813982520558e-01
 2.593307021523262867e-01
 2.840305195135596206e-01
 3.087303333847030706e-01
 3.334301436647474914e-01
 3.581299502487564901e-01
 3.828297530276582594e-01
 4.075295518880517331e-01
 4.322293467119823762e-01
 4.569291373767107034e-01
 4.816289237544707502e-01
 5.063287057122189960e-01
 5.310284831113366577e-01
 5.557282558073479706e-01
 5.804280236496197620e-01
 6.051277864809984086e-01
 6.298275441374853179e-01
 6.545272964478469069e-01
 6.792270432331941610e-01
 7.039267843065919461e-01
 7.286265194725527472e-01
 7.533262485265840303e-01
 7.780259712546301332e-01
 8.027256874325257030e-01
 8.274253968253963976e-01
 8.521250991869945279e-01
 8.768247942589959543e-01
 9.015244817703160773e-01
 9.262241614361867992e-01
 9.509238329574186688e-01
 9.756234960193844730e-01
 1.233235632978479067e-02
 3.703220378375864791e-02
 6.173204857692125846e-02
 8.643189063904269109e-02
 1.111317298973991535e-01
 1.358315662766624299e-01
 1.605313996987805247e-01
 1.852312300828551361e-01
 2.099310573450101358e-01
 2.346308813982520836e-01
 2.593307021523258427e-01
 2.840305195135600091e-01
 3.087303333847026821e-01
 3.334301436647481021e-01
 3.581299502487569342e-01
 3.828297530276588700e-01
 4.075295518880531764e-01
 4.322293467119809329e-01
 4.569291373767102038e-01
 4.816289237544708612e-01
 5.063287057122184409e-01
 5.310284831113351034e-01
 5.557282558073491918e-01
 5.804280236496185408e-01
 6.051277864810011842e-01
 6.298275441374845407e-01
 6.545272964478454636e-01
 6.792270432331940500e-01
 7.039267843065964980e-01
 7.286265194725515260e-01
 7.533262485265818098e-01
 7.780259712546261364e-01
 8.027256874325282565e-01
 8.274253968253980629e-01
 8.521250991869953051e-01
 8.768247942589948440e-01
 9.015244817703216285e-01
 9.262241614361890196e-01
 9.509238329574180026e-01
 9.756234960193868044e-01
 1.233235632978477506e-02
 3.703220378375865485e-02
 6.173204857692131398e-02
 8.643189063904256619e-02
 1.111317298973992784e-01
 1.358315662766622911e-01
 1.605313996987805247e-01
 1.852312300828552472e-01
 2.099310573450103579e-01
 2.346308813982521391e-01
 2.593307021523260647e-01
 2.840305195135601757e-01
 3.087303333847025710e-01
 3.334301436647469363e-01
 3.581299502487583775e-01
 3.828297530276594252e-01
 4.075295518880517887e-01
 4.322293467119829868e-01
 4.569291373767087605e-01
 4.816289237544730817e-01
 5.063287057122196622e-01
 5.310284831113366577e-01
 5.557282558073481926e-01
 5.804280236496177636e-01
 6.051277864809979645e-01
 6.298275441374866501e-01
 6.545272964478434652e-01
 6.792270432331954932e-01
 7.039267843065974972e-01
 7.286265194725521921e-01
 7.533262485265800334e-01
 7.780259712546322426e-01
 8.027256874325268132e-01
 8.274253968253987290e-01
 8.521250991869857572e-01
 8.768247942589978416e-01
 9.015244817703140789e-01
 9.262241614361905739e-01
 9.509238329574219994e-01
 9.756234960193773675e-01
 1.233235632978479067e-02
 3.703220378375864097e-02
 6.173204857692129316e-02
 8.643189063904260783e-02
 1.111317298973991258e-01
 1.358315662766624854e-01
 1.605313996987804692e-01
 1.852312300828552749e-01
 2.099310573450103856e-01
 2.346308813982521668e-01
 2.593307021523264533e-01
 2.840305195135603977e-01
 3.087303333847021269e-01
 3.334301436647480466e-01
 3.581299502487570452e-01
 3.828297530276584260e-01
 4.075295518880545642e-01
 4.322293467119822097e-01
 4.569291373767090381e-01
 4.816289237544734148e-01
 5.063287057122195511e-01
 5.310284831113349924e-01
 5.557282558073506351e-01
 5.804280236496198730e-01
 6.051277864809978535e-01
 6.298275441374862060e-01
 6.545272964478436872e-01
 6.792270432331962704e-01
 7.039267843065953878e-01
 7.286265194725540795e-01
 7.533262485265838082e-01
 7.780259712546302442e-01
 8.027256874325287006e-01
 8.274253968254016156e-01
 8.521250991869904201e-01
 8.768247942590055022e-01
 9.015244817703131908e-01
 9.262241614361820252e-01
 9.509238329574177806e-01
 9.756234960193852501e-01
 1.233235632978477506e-02
 3.703220378375865485e-02
 6.173204857692124459e-02
 8.643189063904259395e-02
 1.111317298973991813e-01
 1.358315662766623189e-01
 1.605313996987806913e-01
 1.852312300828551916e-01
 2.099310573450100803e-01
 2.346308813982523334e-01
 2.593307021523260647e-01
 2.840305195135601757e-01
 3.087303333847029041e-01
 3.334301436647459926e-01
 3.581299502487568787e-01
 3.828297530276579819e-01
 4.075295518880517887e-01
 4.322293467119818211e-01
 4.569291373767110920e-01
 4.816289237544716939e-01
 5.063287057122199952e-01
 5.310284831113367687e-01
 5.557282558073488588e-01
 5.804280236496192069e-01
 6.051277864809953000e-01
 6.298275441374892036e-01
 6.545272964478441313e-01
 6.792270432331937169e-01
 7.039267843065966090e-01
 7.286265194725497496e-01
 7.533262485265826980e-01
 7.780259712546282458e-01
 8.027256874325232605e-01
 8.274253968253985070e-01
 8.521250991869915303e-01
 8.768247942590031707e-01
 9.015244817703130797e-01
 9.262241614361866882e-01
 9.509238329574208892e-01
 9.756234960193822525e-01
 1.233235632978478373e-02
 3.703220378375864097e-02
 6.173204857692133479e-02
 8.643189063904251068e-02
 1.111317298973992368e-01
 1.358315662766623189e-01
 1.605313996987807468e-01
 1.852312300828554137e-01
 2.099310573450100248e-01
 2.346308813982518338e-01
 2.593307021523265088e-01
 2.840305195135604532e-01
 3.087303333847020159e-01
 3.334301436647477135e-01
 3.581299502487572672e-01
 3.828297530276570382e-01
 4.075295518880522327e-01
 4.322293467119807109e-01
 4.569291373767113140e-01
 4.816289237544714719e-01
 5.063287057122186630e-01
 5.310284831113349924e-01
 5.557282558073514123e-01
 5.804280236496196510e-01
 6.051277864809967433e-01
 6.298275441374860950e-01
 6.545272964478460187e-01
 6.792270432331964924e-01
 7.039267843065973862e-01
 7.286265194725500827e-01
 7.533262485265855846e-01
 7.780259712546234718e-01
 8.027256874325219282e-01
 8.274253968253979519e-01
 8.521250991869943059e-01
 8.768247942590006172e-01
 9.015244817703126357e-01
 9.262241614361911290e-01
 9.509238329574213333e-01
 9.756234960193882477e-01
 1.233235632978476291e-02
 3.703220378375868954e-02
 6.173204857692127234e-02
 8.643189063904264946e-02
 1.111317298973992646e-01
 1.358315662766623466e-01
 1.605313996987806635e-01
 1.852312300828553859e-01
 2.099310573450102746e-01
 2.346308813982521113e-01
 2.593307021523261757e-01
 2.840305195135602312e-01
 3.087303333847023490e-01
 3.334301436647477135e-01
 3.581299502487566566e-01
 3.828297530276579819e-01
 4.075295518880526213e-01
 4.322293467119794341e-01
 4.569291373767124242e-01
 4.816289237544705282e-01
 5.063287057122208834e-01
 5.310284831113345483e-01
 5.557282558073489698e-01
 5.804280236496196510e-01
 6.051277864809994078e-01
 6.298275441374858730e-01
 6.545272964478440203e-01
 6.792270432331967145e-01
 7.039267843065899477e-01
 7.286265194725531913e-01
 7.533262485265864727e-01
 7.780259712546250261e-01
 8.027256874325289226e-01
 8.274253968254012825e-01
 8.521250991869971925e-01
 8.768247942590010613e-01
 9.015244817703134128e-01
 9.262241614361858000e-01
 9.509238329574140058e-01
 9.756234960193890249e-01
 1.233235632978478373e-02
 3.703220378375864097e-02
 6.173204857692129316e-02
 8.643189063904258007e-02
 1.111317298973992507e-01
 1.358315662766623189e-01
 1.605313996987804415e-01
 1.852312300828554970e-01
 2.099310573450103024e-01
 2.346308813982524166e-01
 2.593307021523263978e-01
 2.840305195135601202e-01
 3.087303333847021269e-01
 3.334301436647462702e-01
 3.581299502487576558e-01
 3.828297530276585925e-01
 4.075295518880522327e-01
 4.322293467119809329e-01
 4.569291373767110920e-01
 4.816289237544719715e-01
 5.063287057122223267e-01
 5.310284831113336601e-01
 5.557282558073485257e-01
 5.804280236496182077e-01
 6.051277864809969653e-01
 6.298275441374876493e-01
 6.545272964478437983e-01
 6.792270432331946051e-01
 7.039267843065926122e-01
 7.286265194725497496e-01
 7.533262485265830311e-01
 7.780259712546204742e-01
 8.027256874325284786e-01
 8.274253968253979519e-01
 8.521250991869924185e-01
 8.768247942589999511e-01
 9.015244817703139679e-01
 9.262241614361893527e-01
 9.509238329574134507e-01
 9.756234960193814754e-01
 1.233235632978478720e-02
 3.703220378375864791e-02
 6.173204857692127928e-02
 8.643189063904260783e-02
 1.111317298973992090e-01