<VTKFile type="UnstructuredGrid" byte_order="BigEndian">
<UnstructuredGrid><Piece NumberOfPoints="231" NumberOfCells="200">
<Points>
 <DataArray type="Float32" NumberOfComponents="3" format="ascii">
 1.807000041007995605e+00 0.000000000000000000e+00 0.000000000000000000e+00
 1.816650032997131348e+00 0.000000000000000000e+00 0.000000000000000000e+00
 1.826300024986267090e+00 0.000000000000000000e+00 0.000000000000000000e+00
 1.835950016975402832e+00 0.000000000000000000e+00 0.000000000000000000e+00
 1.845600008964538574e+00 0.000000000000000000e+00 0.000000000000000000e+00
 1.855250000953674316e+00 0.000000000000000000e+00 0.000000000000000000e+00
 1.864899992942810059e+00 0.000000000000000000e+00 0.000000000000000000e+00
 1.874549984931945801e+00 0.000000000000000000e+00 0.000000000000000000e+00
 1.884199976921081543e+00 0.000000000000000000e+00 0.000000000000000000e+00
 1.893849968910217285e+00 0.000000000000000000e+00 0.000000000000000000e+00
 1.903499960899353027e+00 0.000000000000000000e+00 0.000000000000000000e+00
 1.913149952888488770e+00 0.000000000000000000e+00 0.000000000000000000e+00
 1.922799944877624512e+00 0.000000000000000000e+00 0.000000000000000000e+00
 1.932450056076049805e+00 0.000000000000000000e+00 0.000000000000000000e+00
 1.942100048065185547e+00 0.000000000000000000e+00 0.000000000000000000e+00
 1.951750040054321289e+00 0.000000000000000000e+00 0.000000000000000000e+00
 1.961400032043457031e+00 0.000000000000000000e+00 0.000000000000000000e+00
 1.971050024032592773e+00 0.000000000000000000e+00 0.000000000000000000e+00
 1.980700016021728516e+00 0.000000000000000000e+00 0.000000000000000000e+00
 1.990350008010864258e+00 0.000000000000000000e+00 0.000000000000000000e+00
 2.000000000000000000e+00 0.000000000000000000e+00 0.000000000000000000e+00
 1.807000041007995605e+00 4.499999806284904480e-03 0.000000000000000000e+00
 1.816650032997131348e+00 4.499999806284904480e-03 0.000000000000000000e+00
 1.826300024986267090e+00 4.499999806284904480e-03 0.000000000000000000e+00
 1.835950016975402832e+00 4.499999806284904480e-03 0.000000000000000000e+00
 1.845600008964538574e+00 4.499999806284904480e-03 0.000000000000000000e+00
 1.855250000953674316e+00 4.499999806284904480e-03 0.000000000000000000e+00
 1.864899992942810059e+00 4.499999806284904480e-03 0.000000000000000000e+00
 1.874549984931945801e+00 4.499999806284904480e-03 0.000000000000000000e+00
 1.884199976921081543e+00 4.499999806284904480e-03 0.000000000000000000e+00
 1.893849968910217285e+00 4.499999806284904480e-03 0.000000000000000000e+00
 1.903499960899353027e+00 4.499999806284904480e-03 0.000000000000000000e+00
 1.913149952888488770e+00 4.499999806284904480e-03 0.000000000000000000e+00
 1.922799944877624512e+00 4.499999806284904480e-03 0.000000000000000000e+00
 1.932450056076049805e+00 4.499999806284904480e-03 0.000000000000000000e+00
 1.942100048065185547e+00 4.499999806284904480e-03 0.000000000000000000e+00
 1.951750040054321289e+00 4.499999806284904480e-03 0.000000000000000000e+00
 1.961400032043457031e+00 4.499999806284904480e-03 0.000000000000000000e+00
 1.971050024032592773e+00 4.499999806284904480e-03 0.000000000000000000e+00
 1.980700016021728516e+00 4.499999806284904480e-03 0.000000000000000000e+00
 1.990350008010864258e+00 4.499999806284904480e-03 0.000000000000000000e+00
 2.000000000000000000e+00 4.499999806284904480e-03 0.000000000000000000e+00
 1.807000041007995605e+00 8.999999612569808960e-03 0.000000000000000000e+00
 1.816650032997131348e+00 8.999999612569808960e-03 0.000000000000000000e+00
 1.826300024986267090e+00 8.999999612569808960e-03 0.000000000000000000e+00
 1.835950016975402832e+00 8.999999612569808960e-03 0.000000000000000000e+00
 1.845600008964538574e+00 8.999999612569808960e-03 0.000000000000000000e+00
 1.855250000953674316e+00 8.999999612569808960e-03 0.000000000000000000e+00
 1.864899992942810059e+00 8.999999612569808960e-03 0.000000000000000000e+00
 1.874549984931945801e+00 8.999999612569808960e-03 0.000000000000000000e+00
 1.884199976921081543e+00 8.999999612569808960e-03 0.000000000000000000e+00
 1.893849968910217285e+00 8.999999612569808960e-03 0.000000000000000000e+00
 1.903499960899353027e+00 8.999999612569808960e-03 0.000000000000000000e+00
 1.913149952888488770e+00 8.999999612569808960e-03 0.000000000000000000e+00
 1.922799944877624512e+00 8.999999612569808960e-03 0.000000000000000000e+00
 1.932450056076049805e+00 8.999999612569808960e-03 0.000000000000000000e+00
 1.942100048065185547e+00 8.999999612569808960e-03 0.000000000000000000e+00
 1.951750040054321289e+00 8.999999612569808960e-03 0.000000000000000000e+00
 1.961400032043457031e+00 8.999999612569808960e-03 0.000000000000000000e+00
 1.971050024032592773e+00 8.999999612569808960e-03 0.000000000000000000e+00
 1.980700016021728516e+00 8.999999612569808960e-03 0.000000000000000000e+00
 1.990350008010864258e+00 8.999999612569808960e-03 0.000000000000000000e+00
 2.000000000000000000e+00 8.999999612569808960e-03 0.000000000000000000e+00
 1.807000041007995605e+00 1.350000035017728806e-02 0.000000000000000000e+00
 1.816650032997131348e+00 1.350000035017728806e-02 0.000000000000000000e+00
 1.826300024986267090e+00 1.350000035017728806e-02 0.000000000000000000e+00
 1.835950016975402832e+00 1.350000035017728806e-02 0.000000000000000000e+00
 1.845600008964538574e+00 1.350000035017728806e-02 0.000000000000000000e+00
 1.855250000953674316e+00 1.350000035017728806e-02 0.000000000000000000e+00
 1.864899992942810059e+00 1.350000035017728806e-02 0.000000000000000000e+00
 1.874549984931945801e+00 1.350000035017728806e-02 0.000000000000000000e+00
 1.884199976921081543e+00 1.350000035017728806e-02 0.000000000000000000e+00
 1.893849968910217285e+00 1.350000035017728806e-02 0.000000000000000000e+00
 1.903499960899353027e+00 1.350000035017728806e-02 0.000000000000000000e+00
 1.913149952888488770e+00 1.350000035017728806e-02 0.000000000000000000e+00
 1.922799944877624512e+00 1.350000035017728806e-02 0.000000000000000000e+00
 1.932450056076049805e+00 1.350000035017728806e-02 0.000000000000000000e+00
 1.942100048065185547e+00 1.350000035017728806e-02 0.000000000000000000e+00
 1.951750040054321289e+00 1.350000035017728806e-02 0.000000000000000000e+00
 1.961400032043457031e+00 1.350000035017728806e-02 0.000000000000000000e+00
 1.971050024032592773e+00 1.350000035017728806e-02 0.000000000000000000e+00
 1.980700016021728516e+00 1.350000035017728806e-02 0.000000000000000000e+00
 1.990350008010864258e+00 1.350000035017728806e-02 0.000000000000000000e+00
 2.000000000000000000e+00 1.350000035017728806e-02 0.000000000000000000e+00
 1.807000041007995605e+00 1.799999922513961792e-02 0.000000000000000000e+00
 1.816650032997131348e+00 1.799999922513961792e-02 0.000000000000000000e+00
 1.826300024986267090e+00 1.799999922513961792e-02 0.000000000000000000e+00
 1.835950016975402832e+00 1.799999922513961792e-02 0.000000000000000000e+00
 1.845600008964538574e+00 1.799999922513961792e-02 0.000000000000000000e+00
 1.855250000953674316e+00 1.799999922513961792e-02 0.000000000000000000e+00
 1.864899992942810059e+00 1.799999922513961792e-02 0.000000000000000000e+00
 1.874549984931945801e+00 1.799999922513961792e-02 0.000000000000000000e+00
 1.884199976921081543e+00 1.799999922513961792e-02 0.000000000000000000e+00
 1.893849968910217285e+00 1.799999922513961792e-02 0.000000000000000000e+00
 1.903499960899353027e+00 1.799999922513961792e-02 0.000000000000000000e+00
 1.913149952888488770e+00 1.799999922513961792e-02 0.000000000000000000e+00
 1.922799944877624512e+00 1.799999922513961792e-02 0.000000000000000000e+00
 1.932450056076049805e+00 1.799999922513961792e-02 0.000000000000000000e+00
 1.942100048065185547e+00 1.799999922513961792e-02 0.000000000000000000e+00
 1.951750040054321289e+00 1.799999922513961792e-02 0.000000000000000000e+00
 1.961400032043457031e+00 1.799999922513961792e-02 0.000000000000000000e+00
 1.971050024032592773e+00 1.799999922513961792e-02 0.000000000000000000e+00
 1.980700016021728516e+00 1.799999922513961792e-02 0.000000000000000000e+00
 1.990350008010864258e+00 1.799999922513961792e-02 0.000000000000000000e+00
 2.000000000000000000e+00 1.799999922513961792e-02 0.000000000000000000e+00
 1.807000041007995605e+00 2.250000089406967163e-02 0.000000000000000000e+00
 1.816650032997131348e+00 2.250000089406967163e-02 0.000000000000000000e+00
 1.826300024986267090e+00 2.250000089406967163e-02 0.000000000000000000e+00
 1.835950016975402832e+00 2.250000089406967163e-02 0.000000000000000000e+00
 1.845600008964538574e+00 2.250000089406967163e-02 0.000000000000000000e+00
 1.855250000953674316e+00 2.250000089406967163e-02 0.000000000000000000e+00
 1.864899992942810059e+00 2.250000089406967163e-02 0.000000000000000000e+00
 1.874549984931945801e+00 2.250000089406967163e-02 0.000000000000000000e+00
 1.884199976921081543e+00 2.250000089406967163e-02 0.000000000000000000e+00
 1.893849968910217285e+00 2.250000089406967163e-02 0.000000000000000000e+00
 1.903499960899353027e+00 2.250000089406967163e-02 0.000000000000000000e+00
 1.913149952888488770e+00 2.250000089406967163e-02 0.000000000000000000e+00
 1.922799944877624512e+00 2.250000089406967163e-02 0.000000000000000000e+00
 1.932450056076049805e+00 2.250000089406967163e-02 0.000000000000000000e+00
 1.942100048065185547e+00 2.250000089406967163e-02 0.000000000000000000e+00
 1.951750040054321289e+00 2.250000089406967163e-02 0.000000000000000000e+00
 1.961400032043457031e+00 2.250000089406967163e-02 0.000000000000000000e+00
 1.971050024032592773e+00 2.250000089406967163e-02 0.000000000000000000e+00
 1.980700016021728516e+00 2.250000089406967163e-02 0.000000000000000000e+00
 1.990350008010864258e+00 2.250000089406967163e-02 0.000000000000000000e+00
 2.000000000000000000e+00 2.250000089406967163e-02 0.000000000000000000e+00
 1.807000041007995605e+00 2.700000070035457611e-02 0.000000000000000000e+00
 1.816650032997131348e+00 2.700000070035457611e-02 0.000000000000000000e+00
[...]
<CellData>
 <DataArray Name="pos.x" type="Float32" NumberOfComponents="1" format="ascii">
 1.811824999999977148e+00
 1.821475000000036593e+00
 1.831124999999975245e+00
 1.840775000000048234e+00
 1.850425000000000209e+00
 1.860074999999978385e+00
 1.869724999999971882e+00
 1.879375000000019336e+00
 1.889025000000001286e+00
 1.898675000000022539e+00
 1.908324999999968297e+00
 1.917974999999997321e+00
 1.927624999999993483e+00
 1.937274999999992309e+00
 1.946925000000018224e+00
 1.956574999999963982e+00
 1.966224999999991230e+00
 1.975874999999963189e+00
 1.985525000000039952e+00
 1.995174999999987486e+00
 1.811825000000037100e+00
 1.821474999999976419e+00
 1.831124999999948377e+00
 1.840774999999987394e+00
 1.850425000000034403e+00
 1.860074999999943079e+00
 1.869725000000033610e+00
 1.879374999999970708e+00
 1.889025000000062793e+00
 1.898674999999959701e+00
 1.908324999999990945e+00
 1.917974999999997321e+00
 1.927624999999993483e+00
 1.937275000000043157e+00
 1.946924999999993355e+00
 1.956574999999990627e+00
 1.966224999999964584e+00
 1.975875000000015813e+00
 1.985524999999987106e+00
 1.995174999999987486e+00
 1.811825000000024888e+00
 1.821475000000068345e+00
 1.831124999999995007e+00
 1.840775000000027806e+00
 1.850424999999973563e+00
 1.860075000000031897e+00
 1.869724999999998305e+00
 1.879375000000045981e+00
 1.889024999999947996e+00
 1.898675000000000113e+00
 1.908324999999964522e+00
 1.917974999999997321e+00
 1.927625000000017019e+00
 1.937275000000048264e+00
 1.946925000000044870e+00
 1.956574999999990627e+00
 1.966225000000016321e+00
 1.975874999999987613e+00
 1.985525000000015527e+00
 1.995174999999960841e+00
 1.811824999999998020e+00
 1.821474999999942446e+00
 1.831125000000016323e+00
 1.840774999999932549e+00
 1.850425000000047726e+00
 1.860075000000031897e+00
 1.869725000000068027e+00
 1.879374999999895657e+00
 1.889025000000001286e+00
 1.898675000000049184e+00
 1.908324999999941651e+00
 1.917975000000047281e+00
 1.927625000000017019e+00
 1.937274999999944347e+00
 1.946925000000018224e+00
 1.956575000000093878e+00
 1.966224999999939271e+00
 1.975875000000040238e+00
 1.985524999999935813e+00
 1.995175000000040333e+00
 1.811825000000046204e+00
 1.821474999999941780e+00
 1.831124999999995007e+00
 1.840774999999958306e+00
 1.850425000000096354e+00
 1.860074999999882017e+00
 1.869725000000013848e+00
 1.879374999999998685e+00
 1.889025000000001286e+00
 1.898674999999972801e+00
 1.908325000000018035e+00
 1.917974999999970676e+00
 1.927625000000043443e+00
 1.937275000000048264e+00
 1.946924999999938510e+00
 1.956574999999990627e+00
 1.966225000000096035e+00
 1.975875000000015813e+00
 1.985524999999987994e+00
 1.995174999999960619e+00
 1.811825000000003572e+00
 1.821475000000043920e+00
 1.831124999999941938e+00
 1.840775000000050676e+00
 1.850425000000003317e+00
 1.860074999999978385e+00
 1.869725000000014514e+00
 1.879375000000029328e+00
 1.889024999999947552e+00
 1.898675000000022761e+00
 1.908324999999968297e+00
 1.917974999999997321e+00
 1.927624999999963507e+00
 1.937275000000101333e+00
 1.946924999999964934e+00
 1.956574999999937114e+00
 1.966225000000042966e+00
 1.975875000000015813e+00
 1.985524999999987994e+00
 1.995174999999960841e+00
 1.811824999999973596e+00
 1.821475000000039923e+00
 1.831124999999991898e+00
 1.840774999999933215e+00
 1.850425000000024855e+00
 1.860074999999978385e+00
 1.869725000000019843e+00
 1.879374999999997797e+00
 1.889025000000049914e+00
 1.898675000000022539e+00
 1.908324999999918781e+00
 1.917975000000047281e+00
 1.927625000000067201e+00
 1.937274999999919922e+00
 1.946924999999991579e+00
 1.956575000000067011e+00
 1.966224999999912848e+00
 1.975875000000068882e+00
 1.985525000000040841e+00
 1.995174999999934196e+00
 1.811825000000056862e+00
 1.821475000000002620e+00
 1.831124999999997227e+00
 1.840775000000031802e+00
 1.850425000000000209e+00
 1.860074999999904000e+00
 1.869725000000073356e+00
 1.879374999999944285e+00
 1.889025000000000620e+00
 1.898674999999947488e+00
 1.908324999999914784e+00
 1.917975000000047281e+00
 1.927624999999990374e+00
 1.937274999999997416e+00
 1.946924999999991579e+00
 1.956575000000068787e+00
 1.966224999999964584e+00
 1.975875000000095527e+00
 1.985524999999960682e+00
 1.995175000000014132e+00
 1.811825000000023778e+00
 1.821474999999866284e+00
 1.831125000000021652e+00
 1.840775000000029804e+00
 1.850424999999997322e+00
 1.860074999999955292e+00
 1.869724999999996529e+00
 1.879375000000021556e+00
 1.889024999999923349e+00
 1.898675000000076496e+00
 1.908324999999938987e+00
 1.917974999999997321e+00
 1.927625000000043221e+00
 1.937275000000048264e+00
 1.946924999999912087e+00
 1.956575000000017051e+00
 1.966225000000016321e+00
 1.975875000000068882e+00
 1.985524999999934703e+00
 1.995175000000014132e+00
 1.811824999999986252e+00
 1.821475000000054134e+00
 1.831124999999966363e+00
 1.840774999999998718e+00
 1.850424999999954689e+00
 1.860075000000007028e+00
 1.869725000000046711e+00
 1.879374999999972262e+00
 1.889024999999996624e+00
 1.898674999999949708e+00
 1.908325000000018035e+00
 1.917975000000047947e+00
 1.927624999999966171e+00
 1.937275000000048264e+00
 1.946924999999938288e+00
 1.956575000000017051e+00
 1.966225000000042966e+00
 1.975874999999963189e+00
 1.985524999999987106e+00
 1.995175000000014132e+00
 </DataArray>
 <DataArray Name="pos.y" type="Float32" NumberOfComponents="1" format="ascii">
 2.249999999999963401e-03
 2.250000000000064015e-03
 2.250000000000000264e-03
 2.250000000000003733e-03
 2.249999999999982916e-03
 2.250000000000014575e-03
 2.249999999999949523e-03
 2.250000000000020647e-03
 2.249999999999962533e-03
 2.250000000000034524e-03
 2.250000000000034524e-03
 2.249999999999962533e-03
 2.250000000000034524e-03
 2.249999999999913528e-03
 2.250000000000051872e-03
 2.249999999999965136e-03
 2.250000000000065749e-03
 2.249999999999944319e-03
 2.250000000000024116e-03
 2.250000000000013708e-03
 6.750000000000118752e-03
 6.749999999999908851e-03
 6.749999999999894973e-03
 6.750000000000054567e-03
 6.750000000000005995e-03
 6.749999999999912320e-03
 6.750000000000060639e-03
 6.749999999999947882e-03
 6.750000000000082323e-03
 6.750000000000042424e-03
 6.750000000000078854e-03
 6.749999999999885432e-03
 6.749999999999964362e-03
 6.750000000000167324e-03
 6.749999999999957423e-03
 6.750000000000103140e-03
 6.749999999999832523e-03
 6.749999999999999056e-03
 6.749999999999975638e-03
 6.750000000000040690e-03
 1.125000000000006550e-02
 1.125000000000014877e-02
 1.124999999999993366e-02
 1.125000000000011234e-02
 1.124999999999990764e-02
 1.125000000000020081e-02
 1.124999999999994928e-02
 1.125000000000025112e-02
 1.124999999999983652e-02
 1.124999999999992673e-02
 1.125000000000009673e-02
 1.124999999999982091e-02
 1.125000000000007938e-02
 1.125000000000007938e-02
 1.125000000000013489e-02
 1.124999999999997703e-02
 1.125000000000004642e-02
 1.124999999999990244e-02
 1.125000000000026326e-02
 1.124999999999966652e-02
 1.574999999999987521e-02
 1.574999999999967398e-02
 1.575000000000018746e-02
 1.574999999999943112e-02
 1.575000000000040951e-02
 1.575000000000027073e-02
 1.575000000000049277e-02
 1.574999999999920214e-02
 1.575000000000006950e-02
 1.575000000000017358e-02
 1.574999999999978154e-02
 1.575000000000034012e-02
 1.575000000000005909e-02
 1.574999999999964276e-02
 1.574999999999978154e-02
 1.575000000000069747e-02
 1.574999999999944500e-02
 1.575000000000051359e-02
 1.574999999999933398e-02
 1.575000000000043726e-02
 2.025000000000050371e-02
 2.024999999999934144e-02
 2.025000000000013595e-02
 2.024999999999980982e-02
 2.025000000000043779e-02
 2.024999999999897368e-02
 2.025000000000021574e-02
 2.025000000000031983e-02
 2.024999999999992084e-02
 2.024999999999961900e-02
 2.025000000000021227e-02
 2.024999999999991390e-02
 2.025000000000025044e-02
 2.025000000000035799e-02
 2.024999999999946287e-02
 2.024999999999979247e-02
 2.025000000000071188e-02
 2.025000000000002146e-02
 2.025000000000000064e-02
 2.024999999999969533e-02
 2.474999999999972014e-02
 2.475000000000035505e-02
 2.474999999999924136e-02
 2.475000000000089628e-02
 2.474999999999936279e-02
 2.475000000000018505e-02
 2.475000000000031342e-02
 2.475000000000018505e-02
 2.474999999999982075e-02
 2.474999999999982075e-02
 2.474999999999975830e-02
 2.474999999999990055e-02
 2.474999999999988320e-02
 2.475000000000077485e-02
 2.474999999999975830e-02
 2.474999999999945993e-02
 2.475000000000088934e-02
 2.475000000000003933e-02
 2.475000000000005321e-02
 2.474999999999961259e-02
 2.924999999999950556e-02
 2.925000000000090375e-02
 2.924999999999946046e-02
 2.924999999999938760e-02
 2.925000000000001210e-02
 2.925000000000015435e-02
 2.924999999999980393e-02
 2.925000000000027925e-02
 2.925000000000101477e-02
 2.924999999999964781e-02
 2.924999999999914474e-02
 2.925000000000064354e-02
 2.925000000000061579e-02
 2.924999999999881861e-02
 2.924999999999996700e-02
 2.925000000000095579e-02
 2.924999999999898861e-02
 2.925000000000066089e-02
 2.925000000000042844e-02
 2.924999999999949515e-02
 3.374999999999986344e-02
 3.375000000000067529e-02
 3.374999999999998834e-02
 3.375000000000068223e-02
 3.374999999999921119e-02
 3.374999999999880179e-02
 3.375000000000058509e-02
 3.374999999999960670e-02
 3.375000000000038386e-02
 3.374999999999886424e-02
 3.374999999999872546e-02
 3.375000000000110550e-02
 3.374999999999976630e-02
 3.374999999999960670e-02
 3.374999999999952344e-02
 3.375000000000052264e-02
 3.374999999999932221e-02
 3.375000000000108469e-02
 3.374999999999978018e-02
 3.375000000000017569e-02
 3.824999999999980499e-02
 3.824999999999756373e-02
 3.825000000000112338e-02
 3.824999999999988132e-02
 3.825000000000009642e-02
 3.824999999999952049e-02
 3.824999999999992295e-02
 3.825000000000006867e-02
 3.824999999999914579e-02
 3.825000000000105399e-02
 3.824999999999883354e-02
 3.824999999999983968e-02
 3.825000000000068623e-02
 3.825000000000068623e-02
 3.824999999999883354e-02
 3.825000000000006173e-02
 3.825000000000050582e-02
 3.825000000000047806e-02
 3.824999999999926376e-02
 3.825000000000025602e-02
 4.274999999999912897e-02
 4.275000000000118983e-02
 4.275000000000019063e-02
 4.274999999999965633e-02
 4.274999999999878203e-02
 4.275000000000051675e-02
 4.275000000000073880e-02
 4.274999999999921918e-02
 4.275000000000111350e-02
 4.274999999999786610e-02
 4.275000000000123840e-02
 4.275000000000048206e-02
 4.274999999999903877e-02
 4.275000000000078043e-02
 4.274999999999903877e-02
 4.275000000000001715e-02
 4.275000000000100941e-02
 4.274999999999930245e-02
 4.274999999999976041e-02
 4.275000000000026695e-02
 </DataArray>
 <DataArray Name="pos.z" type="Float32" NumberOfComponents="1" format="ascii">
 0.000000000000000000e+00
 0.000000000000000000e+00
 0.000000000000000000e+00
 0.000000000000000000e+00
 0.000000000000000000e+00
 0.000000000000000000e+00
 0.000000000000000000e+00
 0.000000000000000000e+00
 0.000000000000000000e+00
 0.000000000000000000e+00
 0.000000000000000000e+00
 0.000000000000000000e+00
 0.000000000000000000e+00
 0.000000000000000000e+00
 0.000000000000000000e+00
 0.000000000000000000e+00
 0.000000000000000000e+00
 0.000000000000000000e+00
 0.000000000000000000e+00
 0.000000000000000000e+00
 0.000000000000000000e+00
 0.000000000000000000e+00
 0.000000000000000000e+00
 0.000000000000000000e+00
 0.000000000000000000e+00
 0.000000000000000000e+00
 0.000000000000000000e+00
 0.000000000000000000e+00
 0.000000000000000000e+00
 0.000000000000000000e+00
 0.000000000000000000e+00
 0.000000000000000000e+00
 0.000000000000000000e+00
 0.000000000000000000e+00
 0.000000000000000000e+00
 0.000000000000000000e+00
 0.000000000000000000e+00
 0.000000000000000000e+00
 0.000000000000000000e+00
 0.000000000000000000e+00
 0.000000000000000000e+00
 0.000000000000000000e+00
 0.000000000000000000e+00
 0.000000000000000000e+00
 0.000000000000000000e+00
 0.000000000000000000e+00
 0.000000000000000000e+00
 0.000000000000000000e+00
 0.000000000000000000e+00
 0.000000000000000000e+00
 0.000000000000000000e+00
 0.000000000000000000e+00
 0.000000000000000000e+00
 0.000000000000000000e+00
 0.000000000000000000e+00
 0.000000000000000000e+00
 0.000000000000000000e+00
 0.000000000000000000e+00
 0.000000000000000000e+00
 0.000000000000000000e+00
 0.000000000000000000e+00
 0.000000000000000000e+00
 0.000000000000000000e+00
 0.000000000000000000e+00
 0.000000000000000000e+00
 0.000000000000000000e+00
 0.000000000000000000e+00
 0.000000000000000000e+00
 0.000000000000000000e+00
 0.000000000000000000e+00
 0.000000000000000000e+00
 0.000000000000000000e+00
 0.000000000000000000e+00
 0.000000000000000000e+00
 0.000000000000000000e+00
 0.000000000000000000e+00
 0.000000000000000000e+00
 0.000000000000000000e+00
 0.000000000000000000e+00
 0.000000000000000000e+00
 0.000000000000000000e+00
 0.000000000000000000e+00
 0.000000000000000000e+00
 0.000000000000000000e+00
 0.000000000000000000e+00
 0.000000000000000000e+00
 0.000000000000000000e+00
 0.000000000000000000e+00
 0.000000000000000000e+00
 0.000000000000000000e+00
 0.000000000000000000e+00
 0.000000000000000000e+00
 0.000000000000000000e+00
 0.000000000000000000e+00
 0.000000000000000000e+00
 0.000000000000000000e+00
 0.000000000000000000e+00
 0.000000000000000000e+00
 0.000000000000000000e+00
 0.000000000000000000e+00
 0.000000000000000000e+00
 0.000000000000000000e+00
 0.000000000000000000e+00
 0.000000000000000000e+00
 0.000000000000000000e+00
 0.000000000000000000e+00
 0.000000000000000000e+00
 0.000000000000000000e+00
 0.000000000000000000e+00
 0.000000000000000000e+00
 0.000000000000000000e+00
 0.000000000000000000e+00
 0.000000000000000000e+00
 0.000000000000000000e+00
 0.000000000000000000e+00
 0.000000000000000000e+00
 0.000000000000000000e+00
 0.000000000000000000e+00
 0.000000000000000000e+00
 0.000000000000000000e+00
 0.000000000000000000e+00
 0.000000000000000000e+00
 0.000000000000000000e+00
 0.000000000000000000e+00
 0.000000000000000000e+00
 0.000000000000000000e+00
 0.000000000000000000e+00
 0.000000000000000000e+00
 0.000000000000000000e+00
 0.000000000000000000e+00
 0.000000000000000000e+00
 0.000000000000000000e+00
 0.000000000000000000e+00
 0.000000000000000000e+00
 0.000000000000000000e+00
 0.000000000000000000e+00
 0.000000000000000000e+00
 0.000000000000000000e+00
 0.000000000000000000e+00
 0.000000000000000000e+00
 0.000000000000000000e+00
 0.000000000000000000e+00
 0.000000000000000000e+00
 0.000000000000000000e+00
 0.000000000000000000e+00
 0.000000000000000000e+00
 0.000000000000000000e+00
 0.000000000000000000e+00
 0.000000000000000000e+00
 0.000000000000000000e+00
 0.000000000000000000e+00
 0.000000000000000000e+00
 0.000000000000000000e+00
 0.000000000000000000e+00
 0.000000000000000000e+00
 0.000000000000000000e+00
 0.000000000000000000e+00
 0.000000000000000000e+00
 0.000000000000000000e+00
 0.000000000000000000e+00
 0.000000000000000000e+00
 0.000000000000000000e+00
 0.000000000000000000e+00
 0.000000000000000000e+00
 0.000000000000000000e+00
 0.000000000000000000e+00
 0.000000000000000000e+00
 0.000000000000000000e+00
 0.000000000000000000e+00
 0.000000000000000000e+00
 0.000000000000000000e+00
 0.000000000000000000e+00
 0.000000000000000000e+00
 0.000000000000000000e+00
 0.000000000000000000e+00
 0.000000000000000000e+00
 0.000000000000000000e+00
 0.000000000000000000e+00
 0.000000000000000000e+00
 0.000000000000000000e+00
 0.000000000000000000e+00
 0.000000000000000000e+00
 0.000000000000000000e+00
 0.000000000000000000e+00
 0.000000000000000000e+00
 0.000000000000000000e+00
 0.000000000000000000e+00
 0.000000000000000000e+00
 0.000000000000000000e+00
 0.000000000000000000e+00
 0.000000000000000000e+00
 0.000000000000000000e+00
 0.000000000000000000e+00
 0.000000000000000000e+00
 0.000000000000000000e+00
 0.000000000000000000e+00
 0.000000000000000000e+00
 0.000000000000000000e+00
 0.000000000000000000e+00
 0.000000000000000000e+00
 </DataArray>
 <DataArray Name="volume" type="Float32" NumberOfComponents="1" format="ascii">
 4.342499999999971383e-05
 4.342500000000144855e-05
 4.342499999999971383e-05
 4.342499999999797911e-05
 4.342499999999971383e-05
 4.342500000000144855e-05
 4.342499999999971383e-05
 4.342499999999797911e-05
 4.342500000000144855e-05
 4.342499999999971383e-05
 4.342499999999971383e-05
 4.342500000000144855e-05
 4.342499999999971383e-05
 4.342499999999971383e-05
 4.342499999999971383e-05
 4.342499999999971383e-05
 4.342500000000144855e-05
 4.342500000000144855e-05
 4.342499999999624438e-05
 4.342500000000144855e-05
 4.342499999999847377e-05
 4.342500000000271571e-05
 4.342499999999971383e-05
 4.342499999999958508e-05
 4.342499999999811463e-05
 4.342500000000281736e-05
 4.342499999999832469e-05
 4.342499999999971383e-05
 4.342499999999963251e-05
 4.342500000000154342e-05
 4.342499999999797911e-05
 4.342500000000144855e-05
 4.342499999999971383e-05
 4.342499999999797911e-05
 4.342500000000144855e-05
 4.342499999999971383e-05
 4.342500000000144855e-05
 4.342499999999971383e-05
 4.342499999999797911e-05
 4.342500000000144855e-05
 4.342499999999896844e-05
 4.342500000000226170e-05
 4.342499999999797911e-05
 4.342499999999971383e-05
 4.342499999999971383e-05
 4.342500000000144855e-05
 4.342499999999949699e-05
 4.342499999999819595e-05
 4.342500000000144855e-05
 4.342500000000144855e-05
 4.342499999999797911e-05
 4.342500000000144855e-05
 4.342499999999797911e-05
 4.342500000000144855e-05
 4.342499999999971383e-05
 4.342499999999971383e-05
 4.342499999999971383e-05
 4.342499999999797911e-05
 4.342500000000144855e-05
 4.342500000000144855e-05
 4.342499999999896844e-05
 4.342500000000399643e-05
 4.342499999999713885e-05
 4.342500000000236335e-05
 4.342499999999797911e-05
 4.342500000000144855e-05
 4.342499999999624438e-05
 4.342500000000144855e-05
 4.342500000000144855e-05
 4.342499999999971383e-05
 4.342499999999971383e-05
 4.342499999999971383e-05
 4.342499999999797911e-05
 4.342500000000318328e-05
 4.342499999999971383e-05
 4.342499999999624438e-05
 4.342500000000318328e-05
 4.342499999999633247e-05
 4.342500000000487057e-05
 4.342499999999797911e-05
 4.342499999999820950e-05
 4.342500000000368472e-05
 4.342499999999797911e-05
 4.342500000000208552e-05
 4.342499999999728793e-05
 4.342500000000443688e-05
 4.342499999999579715e-05
 4.342500000000055409e-05
 4.342500000000144855e-05
 4.342500000000110296e-05
 4.342499999999830437e-05
 4.342500000000144855e-05
 4.342499999999773516e-05
 4.342500000000144855e-05
 4.342499999999990356e-05
 4.342499999999971383e-05
 4.342499999999971383e-05
 4.342499999999971383e-05
 4.342499999999971383e-05
 4.342500000000144178e-05
 4.342499999999971383e-05
 4.342500000000318328e-05
 4.342499999999797911e-05
 4.342499999999964607e-05
 4.342499999999989679e-05
 4.342500000000144855e-05
 4.342499999999624438e-05
 4.342500000000144855e-05
 4.342500000000106231e-05
 4.342500000000006619e-05
 4.342499999999971383e-05
 4.342500000000144855e-05
 4.342499999999797911e-05
 4.342500000000144855e-05
 4.342499999999971383e-05
 4.342499999999971383e-05
 4.342499999999971383e-05
 4.342499999999971383e-05
 4.342499999999971383e-05
 4.342500000000144855e-05
 4.342499999999994422e-05
 4.342500000000132658e-05
 4.342499999999800621e-05
 4.342500000000263440e-05
 4.342499999999868384e-05
 4.342500000000144855e-05
 4.342499999999797911e-05
 4.342499999999971383e-05
 4.342499999999971383e-05
 4.342499999999971383e-05
 4.342500000000144855e-05
 4.342499999999971383e-05
 4.342499999999624438e-05
 4.342500000000491800e-05
 4.342499999999971383e-05
 4.342499999999624438e-05
 4.342500000000318328e-05
 4.342499999999971383e-05
 4.342499999999797911e-05
 4.342500000000144855e-05
 4.342499999999971383e-05
 4.342499999999971383e-05
 4.342499999999915140e-05
 4.342500000000035080e-05
 4.342499999999971383e-05
 4.342500000000318328e-05
 4.342499999999797911e-05
 4.342499999999971383e-05
 4.342500000000068283e-05
 4.342500000000216006e-05
 4.342499999999971383e-05
 4.342499999999971383e-05
 4.342499999999797911e-05
 4.342500000000318328e-05
 4.342499999999971383e-05